    1C
    1U meshsolid_t.inp                                                  
    1UUSER                                                              
    1UDATE              14.august.2016                                  
    1UTIME              15:45:19                                        
    1UHOST                                                              
    1UPGM               CalculiX                                        
    1UVERSION           Version 2.10                             
    1UCOMPILETIME       Sa 5. Mär 12:23:33 CET 2016                    
    1UDIR                                                               
    1UDBN                                                               
    1UMAT    1PDMS                                                      
    1UMAT    2GLASS                                                     
    2C                          3927                                     1
 -1         1 1.50000E+01 0.00000E+00 5.00000E-01
 -1         2-1.50000E+01 0.00000E+00-5.00000E-01
 -1         3 2.92635E+00 1.47118E+01 5.00000E-01
 -1         4 0.00000E+00 1.50000E+01 5.00000E-01
 -1         5 1.06066E+01 1.06066E+01 5.00000E-01
 -1         6 1.06066E+01 1.06066E+01-5.00000E-01
 -1         7 1.24720E+01 8.33355E+00 5.00000E-01
 -1         8-8.33355E+00 1.24720E+01-5.00000E-01
 -1         9-5.74025E+00 1.38582E+01-5.00000E-01
 -1        10 1.38582E+01-5.74025E+00-5.00000E-01
 -1        11 1.24720E+01 8.33355E+00-5.00000E-01
 -1        12 1.06066E+01-1.06066E+01-5.00000E-01
 -1        13 5.74025E+00-1.38582E+01-5.00000E-01
 -1        14 2.92635E+00-1.47118E+01-5.00000E-01
 -1        15 2.92635E+00 1.47118E+01-5.00000E-01
 -1        16 0.00000E+00-1.50000E+01-5.00000E-01
 -1        17-2.92635E+00-1.47118E+01-5.00000E-01
 -1        18-5.74025E+00-1.38582E+01-5.00000E-01
 -1        19-1.24720E+01-8.33355E+00-5.00000E-01
 -1        20-1.06066E+01 1.06066E+01-5.00000E-01
 -1        21-1.24720E+01 8.33355E+00-5.00000E-01
 -1        22-1.38582E+01 5.74025E+00-5.00000E-01
 -1        23-1.47118E+01 2.92635E+00-5.00000E-01
 -1        24 1.38582E+01 5.74025E+00-5.00000E-01
 -1        25 1.47118E+01 2.92635E+00 5.00000E-01
 -1        26 1.47118E+01 2.92635E+00-5.00000E-01
 -1        27 8.33355E+00 1.24720E+01-5.00000E-01
 -1        28 5.74025E+00 1.38582E+01-5.00000E-01
 -1        29 8.33355E+00 1.24720E+01 5.00000E-01
 -1        30-1.47118E+01 2.92635E+00 5.00000E-01
 -1        31-2.78255E+00 1.63964E+00 5.00000E-01
 -1        32-1.06066E+01 1.06066E+01 5.00000E-01
 -1        33-9.26818E+00 4.32608E+00 5.00000E-01
 -1        34-1.38582E+01 5.74025E+00 5.00000E-01
 -1        35-1.24720E+01 8.33355E+00 5.00000E-01
 -1        36-8.08153E-01 3.12696E+00 5.00000E-01
 -1        37-1.94327E+00 2.57967E+00 5.00000E-01
 -1        38-1.63964E+00-2.78255E+00 5.00000E-01
 -1        39-8.33355E+00-1.24720E+01 5.00000E-01
 -1        40-2.78255E+00-1.63964E+00 5.00000E-01
 -1        41-1.24720E+01-8.33355E+00 5.00000E-01
 -1        42-1.38582E+01-5.74025E+00 5.00000E-01
 -1        43-9.61260E+00-3.49459E+00 5.00000E-01
 -1        44-1.02182E+01 4.50000E-01 5.00000E-01
 -1        45-1.50000E+01 0.00000E+00 5.00000E-01
 -1        46-1.47118E+01-2.92635E+00 5.00000E-01
 -1        47-3.19820E+00-4.50000E-01 5.00000E-01
 -1        48 5.74025E+00 1.38582E+01 5.00000E-01
 -1        49-4.50000E-01-3.19820E+00 5.00000E-01
 -1        50-2.92635E+00 1.47118E+01 5.00000E-01
 -1        51-5.74025E+00 1.38582E+01 5.00000E-01
 -1        52-4.32608E+00 9.26818E+00 5.00000E-01
 -1        53 4.32608E+00 9.26818E+00 5.00000E-01
 -1        54 3.19820E+00-4.50000E-01 5.00000E-01
 -1        55 2.78255E+00 1.63964E+00 5.00000E-01
 -1        56 2.78255E+00-1.63964E+00 5.00000E-01
 -1        57 1.02182E+01 4.50000E-01 5.00000E-01
 -1        58 1.38582E+01 5.74025E+00 5.00000E-01
 -1        59 7.54356E+00 6.90716E+00 5.00000E-01
 -1        60 1.38582E+01-5.74025E+00 5.00000E-01
 -1        61 1.24720E+01-8.33355E+00 5.00000E-01
 -1        62 1.06066E+01-1.06066E+01 5.00000E-01
 -1        63 7.54356E+00-6.90716E+00 5.00000E-01
 -1        64 9.26818E+00-4.32608E+00 5.00000E-01
 -1        65 2.57967E+00-1.94327E+00 5.00000E-01
 -1        66 3.12696E+00 8.08153E-01 5.00000E-01
 -1        67 4.32608E+00-9.26818E+00 5.00000E-01
 -1        68 5.74025E+00-1.38582E+01 5.00000E-01
 -1        69 8.08153E-01-3.12696E+00 5.00000E-01
 -1        70 4.50000E-01 3.19820E+00 5.00000E-01
 -1        71 4.50000E-01-1.02182E+01 5.00000E-01
 -1        72-8.08153E-01-3.12696E+00 5.00000E-01
 -1        73-5.74025E+00-1.38582E+01 5.00000E-01
 -1        74-8.33355E+00 1.24720E+01 5.00000E-01
 -1        75 0.00000E+00 1.50000E+01-5.00000E-01
 -1        76-2.92635E+00 1.47118E+01-5.00000E-01
 -1        77 1.50000E+01 0.00000E+00-5.00000E-01
 -1        78 1.47118E+01-2.92635E+00 5.00000E-01
 -1        79 0.00000E+00-1.50000E+01 5.00000E-01
 -1        80 8.33355E+00-1.24720E+01 5.00000E-01
 -1        81 8.33355E+00-1.24720E+01-5.00000E-01
 -1        82-2.92635E+00-1.47118E+01 5.00000E-01
 -1        83-1.47118E+01-2.92635E+00-5.00000E-01
 -1        84 2.92635E+00-1.47118E+01 5.00000E-01
 -1        85-8.33355E+00-1.24720E+01-5.00000E-01
 -1        86-1.06066E+01-1.06066E+01-5.00000E-01
 -1        87-1.06066E+01-1.06066E+01 5.00000E-01
 -1        88-1.38582E+01-5.74025E+00-5.00000E-01
 -1        89 1.24720E+01-8.33355E+00-5.00000E-01
 -1        90 1.47118E+01-2.92635E+00-5.00000E-01
 -1        91 3.19820E+00-4.50000E-01 6.95000E-01
 -1        92 1.02182E+01-4.50000E-01 6.95000E-01
 -1        93 1.02182E+01 4.50000E-01 6.95000E-01
 -1        94 3.19820E+00 4.50000E-01 6.95000E-01
 -1        95 9.26818E+00 4.32608E+00 6.95000E-01
 -1        96 3.12696E+00 8.08153E-01 6.95000E-01
 -1        97 2.78255E+00 1.63964E+00 6.95000E-01
 -1        98 9.61260E+00 3.49459E+00 6.95000E-01
 -1        99 9.61260E+00 3.49459E+00 5.00000E-01
 -1       100 6.90716E+00 7.54356E+00 6.95000E-01
 -1       101 2.57967E+00 1.94327E+00 6.95000E-01
 -1       102 7.54356E+00 6.90716E+00 6.95000E-01
 -1       103 1.94327E+00 2.57967E+00 5.00000E-01
 -1       104 1.94327E+00 2.57967E+00 6.95000E-01
 -1       105 2.57967E+00 1.94327E+00 5.00000E-01
 -1       106 3.49459E+00 9.61260E+00 5.00000E-01
 -1       107 3.49459E+00 9.61260E+00 6.95000E-01
 -1       108 8.08153E-01 3.12696E+00 6.95000E-01
 -1       109 1.63964E+00 2.78255E+00 5.00000E-01
 -1       110 4.32608E+00 9.26818E+00 6.95000E-01
 -1       111 1.63964E+00 2.78255E+00 6.95000E-01
 -1       112 4.50000E-01 1.02182E+01 5.00000E-01
 -1       113-4.50000E-01 1.02182E+01 6.95000E-01
 -1       114-4.50000E-01 3.19820E+00 5.00000E-01
 -1       115-4.50000E-01 3.19820E+00 6.95000E-01
 -1       116 4.50000E-01 1.02182E+01 6.95000E-01
 -1       117 4.50000E-01 3.19820E+00 6.95000E-01
 -1       118-3.49459E+00 9.61260E+00 5.00000E-01
 -1       119-4.32608E+00 9.26818E+00 6.95000E-01
 -1       120-3.49459E+00 9.61260E+00 6.95000E-01
 -1       121-1.63964E+00 2.78255E+00 5.00000E-01
 -1       122-8.08153E-01 3.12696E+00 6.95000E-01
 -1       123-1.63964E+00 2.78255E+00 6.95000E-01
 -1       124-6.90716E+00 7.54356E+00 6.95000E-01
 -1       125-1.94327E+00 2.57967E+00 6.95000E-01
 -1       126-7.54356E+00 6.90716E+00 5.00000E-01
 -1       127-6.90716E+00 7.54356E+00 5.00000E-01
 -1       128-7.54356E+00 6.90716E+00 6.95000E-01
 -1       129-2.57967E+00 1.94327E+00 6.95000E-01
 -1       130-2.57967E+00 1.94327E+00 5.00000E-01
 -1       131-2.78255E+00 1.63964E+00 6.95000E-01
 -1       132-9.61260E+00 3.49459E+00 5.00000E-01
 -1       133-3.12696E+00 8.08153E-01 6.95000E-01
 -1       134-9.26818E+00 4.32608E+00 6.95000E-01
 -1       135-9.61260E+00 3.49459E+00 6.95000E-01
 -1       136-1.02182E+01-4.50000E-01 5.00000E-01
 -1       137-1.02182E+01-4.50000E-01 6.95000E-01
 -1       138-1.02182E+01 4.50000E-01 6.95000E-01
 -1       139-3.19820E+00 4.50000E-01 6.95000E-01
 -1       140-3.19820E+00 4.50000E-01 5.00000E-01
 -1       141-3.19820E+00-4.50000E-01 6.95000E-01
 -1       142-3.12696E+00-8.08153E-01 5.00000E-01
 -1       143-9.61260E+00-3.49459E+00 6.95000E-01
 -1       144-9.26818E+00-4.32608E+00 6.95000E-01
 -1       145-3.12696E+00-8.08153E-01 6.95000E-01
 -1       146-2.78255E+00-1.63964E+00 6.95000E-01
 -1       147-2.57967E+00-1.94327E+00 6.95000E-01
 -1       148-1.94327E+00-2.57967E+00 6.95000E-01
 -1       149-6.90716E+00-7.54356E+00 5.00000E-01
 -1       150-7.54356E+00-6.90716E+00 6.95000E-01
 -1       151-2.57967E+00-1.94327E+00 5.00000E-01
 -1       152-7.54356E+00-6.90716E+00 5.00000E-01
 -1       153-1.94327E+00-2.57967E+00 5.00000E-01
 -1       154-6.90716E+00-7.54356E+00 6.95000E-01
 -1       155-1.63964E+00-2.78255E+00 6.95000E-01
 -1       156-4.32608E+00-9.26818E+00 5.00000E-01
 -1       157-4.32608E+00-9.26818E+00 6.95000E-01
 -1       158-3.49459E+00-9.61260E+00 6.95000E-01
 -1       159-8.08153E-01-3.12696E+00 6.95000E-01
 -1       160 4.50000E-01-1.02182E+01 6.95000E-01
 -1       161 4.50000E-01-3.19820E+00 5.00000E-01
 -1       162 4.50000E-01-3.19820E+00 6.95000E-01
 -1       163-4.50000E-01-1.02182E+01 5.00000E-01
 -1       164-4.50000E-01-3.19820E+00 6.95000E-01
 -1       165-4.50000E-01-1.02182E+01 6.95000E-01
 -1       166 8.08153E-01-3.12696E+00 6.95000E-01
 -1       167 1.63964E+00-2.78255E+00 6.95000E-01
 -1       168 1.63964E+00-2.78255E+00 5.00000E-01
 -1       169 3.49459E+00-9.61260E+00 6.95000E-01
 -1       170 3.49459E+00-9.61260E+00 5.00000E-01
 -1       171 4.32608E+00-9.26818E+00 6.95000E-01
 -1       172 2.57967E+00-1.94327E+00 6.95000E-01
 -1       173 7.54356E+00-6.90716E+00 6.95000E-01
 -1       174 1.94327E+00-2.57967E+00 6.95000E-01
 -1       175 6.90716E+00-7.54356E+00 6.95000E-01
 -1       176 3.12696E+00-8.08153E-01 6.95000E-01
 -1       177 3.12696E+00-8.08153E-01 5.00000E-01
 -1       178 9.26818E+00-4.32608E+00 6.95000E-01
 -1       179 9.61260E+00-3.49459E+00 6.95000E-01
 -1       180 9.61260E+00-3.49459E+00 5.00000E-01
 -1       181 2.78255E+00-1.63964E+00 6.95000E-01
 -1       182 1.02182E+01-4.50000E-01 5.00000E-01
 -1       183 3.19820E+00 4.50000E-01 5.00000E-01
 -1       184 9.26818E+00 4.32608E+00 5.00000E-01
 -1       185 6.90716E+00 7.54356E+00 5.00000E-01
 -1       186 8.08153E-01 3.12696E+00 5.00000E-01
 -1       187-4.50000E-01 1.02182E+01 5.00000E-01
 -1       188-3.12696E+00 8.08153E-01 5.00000E-01
 -1       189-9.26818E+00-4.32608E+00 5.00000E-01
 -1       190-3.49459E+00-9.61260E+00 5.00000E-01
 -1       191 6.90716E+00-7.54356E+00 5.00000E-01
 -1       192 1.94327E+00-2.57967E+00 5.00000E-01
 -1       193 1.48559E+01 1.46318E+00 5.00000E-01
 -1       194 1.48559E+01 1.46318E+00-5.00000E-01
 -1       195-1.48559E+01 1.46318E+00-5.00000E-01
 -1       196-1.48559E+01 1.46318E+00 5.00000E-01
 -1       197 1.46318E+00 1.48559E+01 5.00000E-01
 -1       198 1.46318E+00 1.48559E+01-5.00000E-01
 -1       199-1.46318E+00-1.48559E+01 5.00000E-01
 -1       200-1.46318E+00-1.48559E+01-5.00000E-01
 -1       201 1.15393E+01 9.47007E+00 5.00000E-01
 -1       202 1.15393E+01 9.47007E+00-5.00000E-01
 -1       203-9.47007E+00 1.15393E+01 5.00000E-01
 -1       204-9.47007E+00 1.15393E+01-5.00000E-01
 -1       205-4.33330E+00 1.42850E+01 5.00000E-01
 -1       206-4.33330E+00 1.42850E+01-5.00000E-01
 -1       207 9.47007E+00-1.15393E+01 5.00000E-01
 -1       208 9.47007E+00-1.15393E+01-5.00000E-01
 -1       209 1.48559E+01-1.46318E+00-5.00000E-01
 -1       210 1.42850E+01-4.33330E+00-5.00000E-01
 -1       211 1.42850E+01 4.33330E+00-5.00000E-01
 -1       212 1.31651E+01-7.03690E+00-5.00000E-01
 -1       213 1.31651E+01 7.03690E+00-5.00000E-01
 -1       214 1.15393E+01-9.47007E+00-5.00000E-01
 -1       215 9.47007E+00 1.15393E+01-5.00000E-01
 -1       216 7.03690E+00-1.31651E+01-5.00000E-01
 -1       217 7.03690E+00 1.31651E+01-5.00000E-01
 -1       218 4.33330E+00-1.42850E+01-5.00000E-01
 -1       219 4.33330E+00 1.42850E+01-5.00000E-01
 -1       220 1.46318E+00-1.48559E+01-5.00000E-01
 -1       221-1.46318E+00 1.48559E+01-5.00000E-01
 -1       222-4.33330E+00-1.42850E+01-5.00000E-01
 -1       223-7.03690E+00-1.31651E+01-5.00000E-01
 -1       224-7.03690E+00 1.31651E+01-5.00000E-01
 -1       225-9.47007E+00-1.15393E+01-5.00000E-01
 -1       226-1.15393E+01-9.47007E+00-5.00000E-01
 -1       227-1.15393E+01 9.47007E+00-5.00000E-01
 -1       228-1.31651E+01-7.03690E+00-5.00000E-01
 -1       229-1.31651E+01 7.03690E+00-5.00000E-01
 -1       230-1.42850E+01-4.33330E+00-5.00000E-01
 -1       231-1.42850E+01 4.33330E+00-5.00000E-01
 -1       232-1.48559E+01-1.46318E+00-5.00000E-01
 -1       233 1.31651E+01 7.03690E+00 5.00000E-01
 -1       234 1.42850E+01 4.33330E+00 5.00000E-01
 -1       235 7.03690E+00 1.31651E+01 5.00000E-01
 -1       236 4.33330E+00 1.42850E+01 5.00000E-01
 -1       237 9.47007E+00 1.15393E+01 5.00000E-01
 -1       238-1.31651E+01 7.03690E+00 5.00000E-01
 -1       239-1.15393E+01 9.47007E+00 5.00000E-01
 -1       240-1.42850E+01 4.33330E+00 5.00000E-01
 -1       241-6.36978E+00 2.15137E+00 5.00000E-01
 -1       242-6.70820E+00 4.50000E-01 5.00000E-01
 -1       243-5.06161E+00 4.42521E+00 5.00000E-01
 -1       244-6.02536E+00 2.98286E+00 5.00000E-01
 -1       245-2.98286E+00 6.02536E+00 5.00000E-01
 -1       246-4.42521E+00 5.06161E+00 5.00000E-01
 -1       247-7.03690E+00 1.31651E+01 5.00000E-01
 -1       248-2.98286E+00-6.02536E+00 5.00000E-01
 -1       249-4.42521E+00-5.06161E+00 5.00000E-01
 -1       250-7.03690E+00-1.31651E+01 5.00000E-01
 -1       251-5.06161E+00-4.42521E+00 5.00000E-01
 -1       252-6.02536E+00-2.98286E+00 5.00000E-01
 -1       253-9.47007E+00-1.15393E+01 5.00000E-01
 -1       254-1.15393E+01-9.47007E+00 5.00000E-01
 -1       255-1.31651E+01-7.03690E+00 5.00000E-01
 -1       256-1.42850E+01-4.33330E+00 5.00000E-01
 -1       257-1.48559E+01-1.46318E+00 5.00000E-01
 -1       258-6.36978E+00-2.15137E+00 5.00000E-01
 -1       259-6.70820E+00-4.50000E-01 5.00000E-01
 -1       260 4.50000E-01 6.70820E+00 5.00000E-01
 -1       261 2.15137E+00 6.36978E+00 5.00000E-01
 -1       262-4.50000E-01 6.70820E+00 5.00000E-01
 -1       263-1.46318E+00 1.48559E+01 5.00000E-01
 -1       264-2.15137E+00 6.36978E+00 5.00000E-01
 -1       265 4.42521E+00 5.06161E+00 5.00000E-01
 -1       266 2.98286E+00 6.02536E+00 5.00000E-01
 -1       267 6.70820E+00-4.50000E-01 5.00000E-01
 -1       268 6.36978E+00-2.15137E+00 5.00000E-01
 -1       269 1.48559E+01-1.46318E+00 5.00000E-01
 -1       270 1.42850E+01-4.33330E+00 5.00000E-01
 -1       271 6.02536E+00 2.98286E+00 5.00000E-01
 -1       272 5.06161E+00 4.42521E+00 5.00000E-01
 -1       273 1.31651E+01-7.03690E+00 5.00000E-01
 -1       274 1.15393E+01-9.47007E+00 5.00000E-01
 -1       275 6.02536E+00-2.98286E+00 5.00000E-01
 -1       276 5.06161E+00-4.42521E+00 5.00000E-01
 -1       277 6.70820E+00 4.50000E-01 5.00000E-01
 -1       278 6.36978E+00 2.15137E+00 5.00000E-01
 -1       279 7.03690E+00-1.31651E+01 5.00000E-01
 -1       280 4.42521E+00-5.06161E+00 5.00000E-01
 -1       281 2.98286E+00-6.02536E+00 5.00000E-01
 -1       282 4.33330E+00-1.42850E+01 5.00000E-01
 -1       283 2.15137E+00-6.36978E+00 5.00000E-01
 -1       284 4.50000E-01-6.70820E+00 5.00000E-01
 -1       285 1.46318E+00-1.48559E+01 5.00000E-01
 -1       286-4.50000E-01-6.70820E+00 5.00000E-01
 -1       287-2.15137E+00-6.36978E+00 5.00000E-01
 -1       288-4.33330E+00-1.42850E+01 5.00000E-01
 -1       289 6.70820E+00 4.50000E-01 6.95000E-01
 -1       290 6.70820E+00-4.50000E-01 6.95000E-01
 -1       291 6.36978E+00 2.15137E+00 6.95000E-01
 -1       292 6.02536E+00 2.98286E+00 6.95000E-01
 -1       293 5.06161E+00 4.42521E+00 6.95000E-01
 -1       294 4.42521E+00 5.06161E+00 6.95000E-01
 -1       295 2.98286E+00 6.02536E+00 6.95000E-01
 -1       296 2.15137E+00 6.36978E+00 6.95000E-01
 -1       297 4.50000E-01 6.70820E+00 6.95000E-01
 -1       298-4.50000E-01 6.70820E+00 6.95000E-01
 -1       299-2.15137E+00 6.36978E+00 6.95000E-01
 -1       300-2.98286E+00 6.02536E+00 6.95000E-01
 -1       301-4.42521E+00 5.06161E+00 6.95000E-01
 -1       302-5.06161E+00 4.42521E+00 6.95000E-01
 -1       303-6.02536E+00 2.98286E+00 6.95000E-01
 -1       304-6.36978E+00 2.15137E+00 6.95000E-01
 -1       305-6.70820E+00 4.50000E-01 6.95000E-01
 -1       306-6.70820E+00-4.50000E-01 6.95000E-01
 -1       307-6.02536E+00-2.98286E+00 6.95000E-01
 -1       308-6.36978E+00-2.15137E+00 6.95000E-01
 -1       309-4.42521E+00-5.06161E+00 6.95000E-01
 -1       310-5.06161E+00-4.42521E+00 6.95000E-01
 -1       311-2.15137E+00-6.36978E+00 6.95000E-01
 -1       312-2.98286E+00-6.02536E+00 6.95000E-01
 -1       313 4.50000E-01-6.70820E+00 6.95000E-01
 -1       314-4.50000E-01-6.70820E+00 6.95000E-01
 -1       315 2.98286E+00-6.02536E+00 6.95000E-01
 -1       316 2.15137E+00-6.36978E+00 6.95000E-01
 -1       317 5.06161E+00-4.42521E+00 6.95000E-01
 -1       318 4.42521E+00-5.06161E+00 6.95000E-01
 -1       319 6.36978E+00-2.15137E+00 6.95000E-01
 -1       320 6.02536E+00-2.98286E+00 6.95000E-01
 -1       321 1.47838E+01 2.19476E+00 5.00000E-01
 -1       322 1.49279E+01 7.31588E-01 5.00000E-01
 -1       323-1.49279E+01 7.31588E-01-5.00000E-01
 -1       324 2.19476E+00 1.47838E+01 5.00000E-01
 -1       325-8.90181E+00 1.20056E+01 5.00000E-01
 -1       326 1.40716E+01-5.03678E+00-5.00000E-01
 -1       327 1.44984E+01 3.62983E+00-5.00000E-01
 -1       328 1.28186E+01-7.68523E+00-5.00000E-01
 -1       329 1.35117E+01 6.38858E+00-5.00000E-01
 -1       330 1.20056E+01-8.90181E+00-5.00000E-01
 -1       331 1.10730E+01-1.00383E+01-5.00000E-01
 -1       332 1.00383E+01 1.10730E+01-5.00000E-01
 -1       333 6.38858E+00-1.35117E+01-5.00000E-01
 -1       334 7.68523E+00 1.28186E+01-5.00000E-01
 -1       335 3.62983E+00-1.44984E+01-5.00000E-01
 -1       336 5.03678E+00 1.40716E+01-5.00000E-01
 -1       337 2.19476E+00-1.47838E+01-5.00000E-01
 -1       338 7.31588E-01-1.49279E+01-5.00000E-01
 -1       339-2.19476E+00 1.47838E+01-5.00000E-01
 -1       340-7.31588E-01 1.49279E+01-5.00000E-01
 -1       341-3.62983E+00-1.44984E+01-5.00000E-01
 -1       342-5.03678E+00-1.40716E+01-5.00000E-01
 -1       343-7.68523E+00-1.28186E+01-5.00000E-01
 -1       344-7.68523E+00 1.28186E+01-5.00000E-01
 -1       345-6.38858E+00 1.35117E+01-5.00000E-01
 -1       346-1.00383E+01-1.10730E+01-5.00000E-01
 -1       347-1.20056E+01-8.90181E+00-5.00000E-01
 -1       348-1.20056E+01 8.90181E+00-5.00000E-01
 -1       349-1.10730E+01 1.00383E+01-5.00000E-01
 -1       350-1.35117E+01-6.38858E+00-5.00000E-01
 -1       351-1.28186E+01 7.68523E+00-5.00000E-01
 -1       352-1.44984E+01-3.62983E+00-5.00000E-01
 -1       353-1.40716E+01 5.03678E+00-5.00000E-01
 -1       354-1.49279E+01-7.31588E-01-5.00000E-01
 -1       355 1.35117E+01 6.38858E+00 5.00000E-01
 -1       356 7.68523E+00 1.28186E+01 5.00000E-01
 -1       357 1.00383E+01 1.10730E+01 5.00000E-01
 -1       358-1.10730E+01 1.00383E+01 5.00000E-01
 -1       359-1.40716E+01 5.03678E+00 5.00000E-01
 -1       360-4.95320E+00 4.50000E-01 5.00000E-01
 -1       361-4.40396E+00 2.31125E+00 5.00000E-01
 -1       362-7.68523E+00 1.28186E+01 5.00000E-01
 -1       363-3.18424E+00-3.82064E+00 5.00000E-01
 -1       364-5.66619E+00-6.30259E+00 5.00000E-01
 -1       365-3.82064E+00-3.18424E+00 5.00000E-01
 -1       366-4.40396E+00-2.31125E+00 5.00000E-01
 -1       367-7.64677E+00-3.65447E+00 5.00000E-01
 -1       368-1.10730E+01-1.00383E+01 5.00000E-01
 -1       369-1.28186E+01-7.68523E+00 5.00000E-01
 -1       370-1.47838E+01-2.19476E+00 5.00000E-01
 -1       371-4.74837E+00-1.47976E+00 5.00000E-01
 -1       372-8.46320E+00-4.50000E-01 5.00000E-01
 -1       373 4.50000E-01 4.95320E+00 5.00000E-01
 -1       374 1.47976E+00 4.74837E+00 5.00000E-01
 -1       375 2.82298E+00 7.99119E+00 5.00000E-01
 -1       376-2.19476E+00 1.47838E+01 5.00000E-01
 -1       377-1.47976E+00 4.74837E+00 5.00000E-01
 -1       378 2.31125E+00 4.40396E+00 5.00000E-01
 -1       379 4.95320E+00-4.50000E-01 5.00000E-01
 -1       380 7.99119E+00-2.82298E+00 5.00000E-01
 -1       381 7.64677E+00 3.65447E+00 5.00000E-01
 -1       382 3.82064E+00 3.18424E+00 5.00000E-01
 -1       383 1.20056E+01-8.90181E+00 5.00000E-01
 -1       384 3.82064E+00-3.18424E+00 5.00000E-01
 -1       385 6.30259E+00-5.66619E+00 5.00000E-01
 -1       386 3.18424E+00-3.82064E+00 5.00000E-01
 -1       387 3.65447E+00-7.64677E+00 5.00000E-01
 -1       388 1.47976E+00-4.74837E+00 5.00000E-01
 -1       389 4.50000E-01-4.95320E+00 5.00000E-01
 -1       390 4.50000E-01-8.46320E+00 5.00000E-01
 -1       391 2.19476E+00-1.47838E+01 5.00000E-01
 -1       392-2.82298E+00-7.99119E+00 5.00000E-01
 -1       393-5.83070E+00 4.50000E-01 5.00000E-01
 -1       394-4.07570E+00 4.50000E-01 5.00000E-01
 -1       395-5.21466E+00 2.64705E+00 5.00000E-01
 -1       396-3.59325E+00 1.97545E+00 5.00000E-01
 -1       397-2.56376E+00-3.20016E+00 5.00000E-01
 -1       398-3.80473E+00-4.44113E+00 5.00000E-01
 -1       399-5.04570E+00-5.68210E+00 5.00000E-01
 -1       400-6.28667E+00-6.92307E+00 5.00000E-01
 -1       401-3.20016E+00-2.56376E+00 5.00000E-01
 -1       402-3.59325E+00-1.97545E+00 5.00000E-01
 -1       403-5.21466E+00-2.64705E+00 5.00000E-01
 -1       404-6.83607E+00-3.31867E+00 5.00000E-01
 -1       405-8.45748E+00-3.99027E+00 5.00000E-01
 -1       406-3.93766E+00-1.14396E+00 5.00000E-01
 -1       407-7.58570E+00-4.50000E-01 5.00000E-01
 -1       408-9.34070E+00-4.50000E-01 5.00000E-01
 -1       409 4.50000E-01 5.83070E+00 5.00000E-01
 -1       410 4.50000E-01 4.07570E+00 5.00000E-01
 -1       411 1.14396E+00 3.93766E+00 5.00000E-01
 -1       412 1.81557E+00 5.55907E+00 5.00000E-01
 -1       413 3.15879E+00 8.80190E+00 5.00000E-01
 -1       414-1.81557E+00 5.55907E+00 5.00000E-01
 -1       415-1.14396E+00 3.93766E+00 5.00000E-01
 -1       416 1.97545E+00 3.59325E+00 5.00000E-01
 -1       417 5.83070E+00-4.50000E-01 5.00000E-01
 -1       418 4.07570E+00-4.50000E-01 5.00000E-01
 -1       419 7.18048E+00-2.48718E+00 5.00000E-01
 -1       420 8.80190E+00-3.15879E+00 5.00000E-01
 -1       421 6.83607E+00 3.31867E+00 5.00000E-01
 -1       422 8.45748E+00 3.99027E+00 5.00000E-01
 -1       423 4.44113E+00 3.80473E+00 5.00000E-01
 -1       424 3.20016E+00 2.56376E+00 5.00000E-01
 -1       425 3.20016E+00-2.56376E+00 5.00000E-01
 -1       426 4.44113E+00-3.80473E+00 5.00000E-01
 -1       427 5.68210E+00-5.04570E+00 5.00000E-01
 -1       428 6.92307E+00-6.28667E+00 5.00000E-01
 -1       429 2.56376E+00-3.20016E+00 5.00000E-01
 -1       430 3.31867E+00-6.83607E+00 5.00000E-01
 -1       431 3.99027E+00-8.45748E+00 5.00000E-01
 -1       432 1.81557E+00-5.55907E+00 5.00000E-01
 -1       433 1.14396E+00-3.93766E+00 5.00000E-01
 -1       434 4.50000E-01-4.07570E+00 5.00000E-01
 -1       435 4.50000E-01-5.83070E+00 5.00000E-01
 -1       436 4.50000E-01-7.58570E+00 5.00000E-01
 -1       437 4.50000E-01-9.34070E+00 5.00000E-01
 -1       438-2.48718E+00-7.18048E+00 5.00000E-01
 -1       439-3.15879E+00-8.80190E+00 5.00000E-01
 -1       440 1.47838E+01 2.19476E+00-5.00000E-01
 -1       441 1.49279E+01 7.31588E-01-5.00000E-01
 -1       442-1.47838E+01 2.19476E+00-5.00000E-01
 -1       443-1.47838E+01 2.19476E+00 5.00000E-01
 -1       444-1.49279E+01 7.31588E-01 5.00000E-01
 -1       445 7.31588E-01 1.49279E+01 5.00000E-01
 -1       446 7.31588E-01 1.49279E+01-5.00000E-01
 -1       447 2.19476E+00 1.47838E+01-5.00000E-01
 -1       448-2.19476E+00-1.47838E+01 5.00000E-01
 -1       449-7.31588E-01-1.49279E+01 5.00000E-01
 -1       450-7.31588E-01-1.49279E+01-5.00000E-01
 -1       451-2.19476E+00-1.47838E+01-5.00000E-01
 -1       452 1.20056E+01 8.90181E+00 5.00000E-01
 -1       453 1.10730E+01 1.00383E+01 5.00000E-01
 -1       454 1.10730E+01 1.00383E+01-5.00000E-01
 -1       455 1.20056E+01 8.90181E+00-5.00000E-01
 -1       456-1.00383E+01 1.10730E+01 5.00000E-01
 -1       457-1.00383E+01 1.10730E+01-5.00000E-01
 -1       458-8.90181E+00 1.20056E+01-5.00000E-01
 -1       459-3.62983E+00 1.44984E+01 5.00000E-01
 -1       460-5.03678E+00 1.40716E+01 5.00000E-01
 -1       461-5.03678E+00 1.40716E+01-5.00000E-01
 -1       462-3.62983E+00 1.44984E+01-5.00000E-01
 -1       463 8.90181E+00-1.20056E+01 5.00000E-01
 -1       464 1.00383E+01-1.10730E+01 5.00000E-01
 -1       465 1.00383E+01-1.10730E+01-5.00000E-01
 -1       466 8.90181E+00-1.20056E+01-5.00000E-01
 -1       467 1.47838E+01-2.19476E+00-5.00000E-01
 -1       468 1.49279E+01-7.31588E-01-5.00000E-01
 -1       469 1.44984E+01-3.62983E+00-5.00000E-01
 -1       470 1.40716E+01 5.03678E+00-5.00000E-01
 -1       471 1.35117E+01-6.38858E+00-5.00000E-01
 -1       472 1.28186E+01 7.68523E+00-5.00000E-01
 -1       473 8.90181E+00 1.20056E+01-5.00000E-01
 -1       474 7.68523E+00-1.28186E+01-5.00000E-01
 -1       475 6.38858E+00 1.35117E+01-5.00000E-01
 -1       476 5.03678E+00-1.40716E+01-5.00000E-01
 -1       477 3.62983E+00 1.44984E+01-5.00000E-01
 -1       478-6.38858E+00-1.35117E+01-5.00000E-01
 -1       479-8.90181E+00-1.20056E+01-5.00000E-01
 -1       480-1.10730E+01-1.00383E+01-5.00000E-01
 -1       481-1.28186E+01-7.68523E+00-5.00000E-01
 -1       482-1.35117E+01 6.38858E+00-5.00000E-01
 -1       483-1.40716E+01-5.03678E+00-5.00000E-01
 -1       484-1.44984E+01 3.62983E+00-5.00000E-01
 -1       485-1.47838E+01-2.19476E+00-5.00000E-01
 -1       486 1.28186E+01 7.68523E+00 5.00000E-01
 -1       487 1.44984E+01 3.62983E+00 5.00000E-01
 -1       488 1.40716E+01 5.03678E+00 5.00000E-01
 -1       489 6.38858E+00 1.35117E+01 5.00000E-01
 -1       490 5.03678E+00 1.40716E+01 5.00000E-01
 -1       491 3.62983E+00 1.44984E+01 5.00000E-01
 -1       492 8.90181E+00 1.20056E+01 5.00000E-01
 -1       493-1.28186E+01 7.68523E+00 5.00000E-01
 -1       494-1.35117E+01 6.38858E+00 5.00000E-01
 -1       495-1.20056E+01 8.90181E+00 5.00000E-01
 -1       496-1.44984E+01 3.62983E+00 5.00000E-01
 -1       497-7.99119E+00 2.82298E+00 5.00000E-01
 -1       498-4.74837E+00 1.47976E+00 5.00000E-01
 -1       499-8.46320E+00 4.50000E-01 5.00000E-01
 -1       500-6.30259E+00 5.66619E+00 5.00000E-01
 -1       501-3.82064E+00 3.18424E+00 5.00000E-01
 -1       502-7.64677E+00 3.65447E+00 5.00000E-01
 -1       503-3.18424E+00 3.82064E+00 5.00000E-01
 -1       504-3.65447E+00 7.64677E+00 5.00000E-01
 -1       505-2.31125E+00 4.40396E+00 5.00000E-01
 -1       506-5.66619E+00 6.30259E+00 5.00000E-01
 -1       507-6.38858E+00 1.35117E+01 5.00000E-01
 -1       508-2.31125E+00-4.40396E+00 5.00000E-01
 -1       509-3.65447E+00-7.64677E+00 5.00000E-01
 -1       510-6.38858E+00-1.35117E+01 5.00000E-01
 -1       511-7.68523E+00-1.28186E+01 5.00000E-01
 -1       512-6.30259E+00-5.66619E+00 5.00000E-01
 -1       513-8.90181E+00-1.20056E+01 5.00000E-01
 -1       514-1.00383E+01-1.10730E+01 5.00000E-01
 -1       515-1.20056E+01-8.90181E+00 5.00000E-01
 -1       516-1.35117E+01-6.38858E+00 5.00000E-01
 -1       517-1.40716E+01-5.03678E+00 5.00000E-01
 -1       518-1.44984E+01-3.62983E+00 5.00000E-01
 -1       519-1.49279E+01-7.31588E-01 5.00000E-01
 -1       520-7.99119E+00-2.82298E+00 5.00000E-01
 -1       521-4.95320E+00-4.50000E-01 5.00000E-01
 -1       522 4.50000E-01 8.46320E+00 5.00000E-01
 -1       523-4.50000E-01 8.46320E+00 5.00000E-01
 -1       524-4.50000E-01 4.95320E+00 5.00000E-01
 -1       525-7.31588E-01 1.49279E+01 5.00000E-01
 -1       526-2.82298E+00 7.99119E+00 5.00000E-01
 -1       527 5.66619E+00 6.30259E+00 5.00000E-01
 -1       528 3.18424E+00 3.82064E+00 5.00000E-01
 -1       529 3.65447E+00 7.64677E+00 5.00000E-01
 -1       530 8.46320E+00-4.50000E-01 5.00000E-01
 -1       531 4.74837E+00-1.47976E+00 5.00000E-01
 -1       532 4.40396E+00 2.31125E+00 5.00000E-01
 -1       533 1.44984E+01-3.62983E+00 5.00000E-01
 -1       534 1.49279E+01-7.31588E-01 5.00000E-01
 -1       535 1.47838E+01-2.19476E+00 5.00000E-01
 -1       536 1.40716E+01-5.03678E+00 5.00000E-01
 -1       537 6.30259E+00 5.66619E+00 5.00000E-01
 -1       538 1.35117E+01-6.38858E+00 5.00000E-01
 -1       539 1.28186E+01-7.68523E+00 5.00000E-01
 -1       540 1.10730E+01-1.00383E+01 5.00000E-01
 -1       541 4.40396E+00-2.31125E+00 5.00000E-01
 -1       542 7.64677E+00-3.65447E+00 5.00000E-01
 -1       543 7.68523E+00-1.28186E+01 5.00000E-01
 -1       544 8.46320E+00 4.50000E-01 5.00000E-01
 -1       545 4.95320E+00 4.50000E-01 5.00000E-01
 -1       546 4.74837E+00 1.47976E+00 5.00000E-01
 -1       547 7.99119E+00 2.82298E+00 5.00000E-01
 -1       548 6.38858E+00-1.35117E+01 5.00000E-01
 -1       549 5.66619E+00-6.30259E+00 5.00000E-01
 -1       550 2.31125E+00-4.40396E+00 5.00000E-01
 -1       551 2.82298E+00-7.99119E+00 5.00000E-01
 -1       552 5.03678E+00-1.40716E+01 5.00000E-01
 -1       553 3.62983E+00-1.44984E+01 5.00000E-01
 -1       554 7.31588E-01-1.49279E+01 5.00000E-01
 -1       555-4.50000E-01-4.95320E+00 5.00000E-01
 -1       556-4.50000E-01-8.46320E+00 5.00000E-01
 -1       557-1.47976E+00-4.74837E+00 5.00000E-01
 -1       558-3.62983E+00-1.44984E+01 5.00000E-01
 -1       559-5.03678E+00-1.40716E+01 5.00000E-01
 -1       560 8.46320E+00-4.50000E-01 6.95000E-01
 -1       561 4.95320E+00 4.50000E-01 6.95000E-01
 -1       562 8.46320E+00 4.50000E-01 6.95000E-01
 -1       563 4.95320E+00-4.50000E-01 6.95000E-01
 -1       564 4.40396E+00 2.31125E+00 6.95000E-01
 -1       565 7.99119E+00 2.82298E+00 6.95000E-01
 -1       566 4.74837E+00 1.47976E+00 6.95000E-01
 -1       567 7.64677E+00 3.65447E+00 6.95000E-01
 -1       568 3.18424E+00 3.82064E+00 6.95000E-01
 -1       569 6.30259E+00 5.66619E+00 6.95000E-01
 -1       570 3.82064E+00 3.18424E+00 6.95000E-01
 -1       571 5.66619E+00 6.30259E+00 6.95000E-01
 -1       572 1.47976E+00 4.74837E+00 6.95000E-01
 -1       573 3.65447E+00 7.64677E+00 6.95000E-01
 -1       574 2.31125E+00 4.40396E+00 6.95000E-01
 -1       575 2.82298E+00 7.99119E+00 6.95000E-01
 -1       576-4.50000E-01 4.95320E+00 6.95000E-01
 -1       577 4.50000E-01 8.46320E+00 6.95000E-01
 -1       578 4.50000E-01 4.95320E+00 6.95000E-01
 -1       579-4.50000E-01 8.46320E+00 6.95000E-01
 -1       580-2.82298E+00 7.99119E+00 6.95000E-01