    1C
    1U meshsolid_t.inp                                                  
    1UUSER                                                              
    1UDATE              14.august.2016                                  
    1UTIME              16:12:49                                        
    1UHOST                                                              
    1UPGM               CalculiX                                        
    1UVERSION           Version 2.10                             
    1UCOMPILETIME       Sa 5. Mär 12:23:33 CET 2016                    
    1UDIR                                                               
    1UDBN                                                               
    1UMAT    1PDMS                                                      
    1UMAT    2GLASS                                                     
    2C                          2059                                     1
 -1         1 1.50000E+01 0.00000E+00 5.00000E-01
 -1         2-1.50000E+01 0.00000E+00-5.00000E-01
 -1         3-2.92635E+00-1.47118E+01 5.00000E-01
 -1         4 0.00000E+00-1.50000E+01-5.00000E-01
 -1         5 1.06066E+01 1.06066E+01-5.00000E-01
 -1         6 1.24720E+01 8.33355E+00 5.00000E-01
 -1         7-8.33355E+00 1.24720E+01-5.00000E-01
 -1         8-2.92635E+00 1.47118E+01-5.00000E-01
 -1         9-5.74025E+00 1.38582E+01-5.00000E-01
 -1        10 1.47118E+01 2.92635E+00-5.00000E-01
 -1        11 1.38582E+01-5.74025E+00-5.00000E-01
 -1        12 1.06066E+01-1.06066E+01-5.00000E-01
 -1        13 8.33355E+00-1.24720E+01-5.00000E-01
 -1        14 2.92635E+00 1.47118E+01-5.00000E-01
 -1        15-2.92635E+00-1.47118E+01-5.00000E-01
 -1        16-5.74025E+00-1.38582E+01-5.00000E-01
 -1        17-8.33355E+00-1.24720E+01-5.00000E-01
 -1        18-1.06066E+01 1.06066E+01-5.00000E-01
 -1        19-1.38582E+01-5.74025E+00-5.00000E-01
 -1        20-1.24720E+01-8.33355E+00-5.00000E-01
 -1        21-1.38582E+01 5.74025E+00-5.00000E-01
 -1        22-1.47118E+01-2.92635E+00-5.00000E-01
 -1        23-1.47118E+01 2.92635E+00-5.00000E-01
 -1        24 1.38582E+01 5.74025E+00 5.00000E-01
 -1        25 1.24720E+01 8.33355E+00-5.00000E-01
 -1        26 1.38582E+01 5.74025E+00-5.00000E-01
 -1        27 8.33355E+00 1.24720E+01-5.00000E-01
 -1        28 5.74025E+00 1.38582E+01-5.00000E-01
 -1        29 8.33355E+00 1.24720E+01 5.00000E-01
 -1        30-1.24720E+01 8.33355E+00 5.00000E-01
 -1        31-1.24720E+01 8.33355E+00-5.00000E-01
 -1        32-1.06066E+01 1.06066E+01 5.00000E-01
 -1        33-3.06956E+00-9.46735E-01 5.00000E-01
 -1        34-1.38582E+01 5.74025E+00 5.00000E-01
 -1        35-1.50106E+00 2.83995E+00 5.00000E-01
 -1        36-9.46735E-01-3.06956E+00 5.00000E-01
 -1        37-1.50106E+00-2.83995E+00 5.00000E-01
 -1        38-8.33355E+00 1.24720E+01 5.00000E-01
 -1        39-4.18750E+00 9.32558E+00 5.00000E-01
 -1        40-5.74025E+00 1.38582E+01 5.00000E-01
 -1        41 2.99999E-01-3.19820E+00 5.00000E-01
 -1        42-7.01323E+00-7.43749E+00 5.00000E-01
 -1        43-7.43749E+00-7.01323E+00 5.00000E-01
 -1        44-1.02182E+01-2.99999E-01 5.00000E-01
 -1        45-9.55519E+00 3.63317E+00 5.00000E-01
 -1        46-1.47118E+01 2.92635E+00 5.00000E-01
 -1        47-1.02182E+01 2.99999E-01 5.00000E-01
 -1        48-1.24720E+01-8.33355E+00 5.00000E-01
 -1        49-9.55519E+00-3.63317E+00 5.00000E-01
 -1        50 2.92635E+00 1.47118E+01 5.00000E-01
 -1        51 3.63317E+00 9.55519E+00 5.00000E-01
 -1        52 2.99999E-01 1.02182E+01 5.00000E-01
 -1        53 0.00000E+00 1.50000E+01 5.00000E-01
 -1        54-2.99999E-01 3.19820E+00 5.00000E-01
 -1        55-2.92635E+00 1.47118E+01 5.00000E-01
 -1        56-2.99999E-01 1.02182E+01 5.00000E-01
 -1        57 1.06066E+01 1.06066E+01 5.00000E-01
 -1        58 5.74025E+00 1.38582E+01 5.00000E-01
 -1        59 7.01323E+00 7.43749E+00 5.00000E-01
 -1        60 9.55519E+00-3.63317E+00 5.00000E-01
 -1        61 2.83995E+00 1.50106E+00 5.00000E-01
 -1        62 3.06956E+00-9.46735E-01 5.00000E-01
 -1        63 1.47118E+01 2.92635E+00 5.00000E-01
 -1        64 1.02182E+01-2.99999E-01 5.00000E-01
 -1        65 7.43749E+00 7.01323E+00 5.00000E-01
 -1        66 2.47360E+00-2.04934E+00 5.00000E-01
 -1        67 2.83995E+00-1.50106E+00 5.00000E-01
 -1        68 8.33355E+00-1.24720E+01 5.00000E-01
 -1        69 4.18750E+00-9.32558E+00 5.00000E-01
 -1        70 5.74025E+00-1.38582E+01 5.00000E-01
 -1        71 9.46735E-01-3.06956E+00 5.00000E-01
 -1        72 2.99999E-01 3.19820E+00 5.00000E-01
 -1        73-2.99999E-01-1.02182E+01 5.00000E-01
 -1        74 0.00000E+00-1.50000E+01 5.00000E-01
 -1        75-3.63317E+00-9.55519E+00 5.00000E-01
 -1        76 0.00000E+00 1.50000E+01-5.00000E-01
 -1        77 1.50000E+01 0.00000E+00-5.00000E-01
 -1        78 1.47118E+01-2.92635E+00 5.00000E-01
 -1        79 1.47118E+01-2.92635E+00-5.00000E-01
 -1        80 2.92635E+00-1.47118E+01 5.00000E-01
 -1        81 5.74025E+00-1.38582E+01-5.00000E-01
 -1        82-8.33355E+00-1.24720E+01 5.00000E-01
 -1        83-1.38582E+01-5.74025E+00 5.00000E-01
 -1        84-1.50000E+01 0.00000E+00 5.00000E-01
 -1        85-1.47118E+01-2.92635E+00 5.00000E-01
 -1        86 2.92635E+00-1.47118E+01-5.00000E-01
 -1        87 1.06066E+01-1.06066E+01 5.00000E-01
 -1        88-5.74025E+00-1.38582E+01 5.00000E-01
 -1        89-1.06066E+01-1.06066E+01-5.00000E-01
 -1        90-1.06066E+01-1.06066E+01 5.00000E-01
 -1        91 1.24720E+01-8.33355E+00 5.00000E-01
 -1        92 1.24720E+01-8.33355E+00-5.00000E-01
 -1        93 1.38582E+01-5.74025E+00 5.00000E-01
 -1        94 3.19820E+00 2.99999E-01 6.95000E-01
 -1        95 1.02182E+01 2.99999E-01 6.95000E-01
 -1        96 3.19820E+00-2.99999E-01 6.95000E-01
 -1        97 1.02182E+01-2.99999E-01 6.95000E-01
 -1        98 3.19820E+00-2.99999E-01 5.00000E-01
 -1        99 1.02182E+01 2.99999E-01 5.00000E-01
 -1       100 9.32558E+00 4.18750E+00 6.95000E-01
 -1       101 9.55519E+00 3.63317E+00 6.95000E-01
 -1       102 3.06956E+00 9.46735E-01 6.95000E-01
 -1       103 2.83995E+00 1.50106E+00 6.95000E-01
 -1       104 3.06956E+00 9.46735E-01 5.00000E-01
 -1       105 7.01323E+00 7.43749E+00 6.95000E-01
 -1       106 2.04934E+00 2.47360E+00 5.00000E-01
 -1       107 2.04934E+00 2.47360E+00 6.95000E-01
 -1       108 2.47360E+00 2.04934E+00 5.00000E-01
 -1       109 2.47360E+00 2.04934E+00 6.95000E-01
 -1       110 7.43749E+00 7.01323E+00 6.95000E-01
 -1       111 4.18750E+00 9.32558E+00 6.95000E-01
 -1       112 3.63317E+00 9.55519E+00 6.95000E-01
 -1       113 9.46735E-01 3.06956E+00 6.95000E-01
 -1       114 1.50106E+00 2.83995E+00 6.95000E-01
 -1       115 1.50106E+00 2.83995E+00 5.00000E-01
 -1       116 4.18750E+00 9.32558E+00 5.00000E-01
 -1       117 2.99999E-01 1.02182E+01 6.95000E-01
 -1       118-2.99999E-01 1.02182E+01 6.95000E-01
 -1       119-2.99999E-01 3.19820E+00 6.95000E-01
 -1       120 2.99999E-01 3.19820E+00 6.95000E-01
 -1       121-1.50106E+00 2.83995E+00 6.95000E-01
 -1       122-4.18750E+00 9.32558E+00 6.95000E-01
 -1       123-3.63317E+00 9.55519E+00 6.95000E-01
 -1       124-9.46735E-01 3.06956E+00 6.95000E-01
 -1       125-9.46735E-01 3.06956E+00 5.00000E-01
 -1       126-7.01323E+00 7.43749E+00 6.95000E-01
 -1       127-7.43749E+00 7.01323E+00 6.95000E-01
 -1       128-7.43749E+00 7.01323E+00 5.00000E-01
 -1       129-7.01323E+00 7.43749E+00 5.00000E-01
 -1       130-2.04934E+00 2.47360E+00 6.95000E-01
 -1       131-2.47360E+00 2.04934E+00 6.95000E-01
 -1       132-2.04934E+00 2.47360E+00 5.00000E-01
 -1       133-2.47360E+00 2.04934E+00 5.00000E-01
 -1       134-2.83995E+00 1.50106E+00 6.95000E-01
 -1       135-9.32558E+00 4.18750E+00 5.00000E-01
 -1       136-9.32558E+00 4.18750E+00 6.95000E-01
 -1       137-2.83995E+00 1.50106E+00 5.00000E-01
 -1       138-9.55519E+00 3.63317E+00 6.95000E-01
 -1       139-3.06956E+00 9.46735E-01 6.95000E-01
 -1       140-1.02182E+01 2.99999E-01 6.95000E-01
 -1       141-3.19820E+00 2.99999E-01 6.95000E-01
 -1       142-3.19820E+00 2.99999E-01 5.00000E-01
 -1       143-1.02182E+01-2.99999E-01 6.95000E-01
 -1       144-3.19820E+00-2.99999E-01 6.95000E-01
 -1       145-3.19820E+00-2.99999E-01 5.00000E-01
 -1       146-3.06956E+00-9.46735E-01 6.95000E-01
 -1       147-9.55519E+00-3.63317E+00 6.95000E-01
 -1       148-9.32558E+00-4.18750E+00 6.95000E-01
 -1       149-2.83995E+00-1.50106E+00 6.95000E-01
 -1       150-2.47360E+00-2.04934E+00 6.95000E-01
 -1       151-2.04934E+00-2.47360E+00 6.95000E-01
 -1       152-7.43749E+00-7.01323E+00 6.95000E-01
 -1       153-2.47360E+00-2.04934E+00 5.00000E-01
 -1       154-7.01323E+00-7.43749E+00 6.95000E-01
 -1       155-1.50106E+00-2.83995E+00 6.95000E-01
 -1       156-4.18750E+00-9.32558E+00 5.00000E-01
 -1       157-4.18750E+00-9.32558E+00 6.95000E-01
 -1       158-3.63317E+00-9.55519E+00 6.95000E-01
 -1       159-9.46735E-01-3.06956E+00 6.95000E-01
 -1       160 2.99999E-01-3.19820E+00 6.95000E-01
 -1       161-2.99999E-01-3.19820E+00 5.00000E-01
 -1       162 2.99999E-01-1.02182E+01 6.95000E-01
 -1       163-2.99999E-01-3.19820E+00 6.95000E-01
 -1       164-2.99999E-01-1.02182E+01 6.95000E-01
 -1       165 1.50106E+00-2.83995E+00 5.00000E-01
 -1       166 3.63317E+00-9.55519E+00 6.95000E-01
 -1       167 9.46735E-01-3.06956E+00 6.95000E-01
 -1       168 3.63317E+00-9.55519E+00 5.00000E-01
 -1       169 4.18750E+00-9.32558E+00 6.95000E-01
 -1       170 1.50106E+00-2.83995E+00 6.95000E-01
 -1       171 2.04934E+00-2.47360E+00 6.95000E-01
 -1       172 7.43749E+00-7.01323E+00 6.95000E-01
 -1       173 2.47360E+00-2.04934E+00 6.95000E-01
 -1       174 7.43749E+00-7.01323E+00 5.00000E-01
 -1       175 7.01323E+00-7.43749E+00 6.95000E-01
 -1       176 3.06956E+00-9.46735E-01 6.95000E-01
 -1       177 9.55519E+00-3.63317E+00 6.95000E-01
 -1       178 2.83995E+00-1.50106E+00 6.95000E-01
 -1       179 9.32558E+00-4.18750E+00 6.95000E-01
 -1       180 9.32558E+00-4.18750E+00 5.00000E-01
 -1       181 3.19820E+00 2.99999E-01 5.00000E-01
 -1       182 9.32558E+00 4.18750E+00 5.00000E-01
 -1       183 9.55519E+00 3.63317E+00 5.00000E-01
 -1       184 9.46735E-01 3.06956E+00 5.00000E-01
 -1       185-3.63317E+00 9.55519E+00 5.00000E-01
 -1       186-3.06956E+00 9.46735E-01 5.00000E-01
 -1       187-2.83995E+00-1.50106E+00 5.00000E-01
 -1       188-9.32558E+00-4.18750E+00 5.00000E-01
 -1       189-2.04934E+00-2.47360E+00 5.00000E-01
 -1       190 2.99999E-01-1.02182E+01 5.00000E-01
 -1       191 7.01323E+00-7.43749E+00 5.00000E-01
 -1       192 2.04934E+00-2.47360E+00 5.00000E-01
 -1       193 1.48559E+01 1.46318E+00 5.00000E-01
 -1       194 1.48559E+01 1.46318E+00-5.00000E-01
 -1       195-1.48559E+01 1.46318E+00-5.00000E-01
 -1       196-1.48559E+01 1.46318E+00 5.00000E-01
 -1       197 1.46318E+00 1.48559E+01 5.00000E-01
 -1       198 1.46318E+00 1.48559E+01-5.00000E-01
 -1       199-1.46318E+00-1.48559E+01 5.00000E-01
 -1       200-1.46318E+00-1.48559E+01-5.00000E-01
 -1       201 1.15393E+01 9.47007E+00 5.00000E-01
 -1       202 1.15393E+01 9.47007E+00-5.00000E-01
 -1       203-9.47007E+00 1.15393E+01 5.00000E-01
 -1       204-9.47007E+00 1.15393E+01-5.00000E-01
 -1       205-4.33330E+00 1.42850E+01 5.00000E-01
 -1       206-4.33330E+00 1.42850E+01-5.00000E-01
 -1       207 1.48559E+01-1.46318E+00-5.00000E-01
 -1       208 1.42850E+01-4.33330E+00-5.00000E-01
 -1       209 1.42850E+01 4.33330E+00-5.00000E-01
 -1       210 1.31651E+01-7.03690E+00-5.00000E-01
 -1       211 1.31651E+01 7.03690E+00-5.00000E-01
 -1       212 1.15393E+01-9.47007E+00-5.00000E-01
 -1       213 9.47007E+00-1.15393E+01-5.00000E-01
 -1       214 9.47007E+00 1.15393E+01-5.00000E-01
 -1       215 7.03690E+00-1.31651E+01-5.00000E-01
 -1       216 7.03690E+00 1.31651E+01-5.00000E-01
 -1       217 4.33330E+00-1.42850E+01-5.00000E-01
 -1       218 4.33330E+00 1.42850E+01-5.00000E-01
 -1       219 1.46318E+00-1.48559E+01-5.00000E-01
 -1       220-1.46318E+00 1.48559E+01-5.00000E-01
 -1       221-4.33330E+00-1.42850E+01-5.00000E-01
 -1       222-7.03690E+00-1.31651E+01-5.00000E-01
 -1       223-7.03690E+00 1.31651E+01-5.00000E-01
 -1       224-9.47007E+00-1.15393E+01-5.00000E-01
 -1       225-1.15393E+01-9.47007E+00-5.00000E-01
 -1       226-1.15393E+01 9.47007E+00-5.00000E-01
 -1       227-1.31651E+01-7.03690E+00-5.00000E-01
 -1       228-1.31651E+01 7.03690E+00-5.00000E-01
 -1       229-1.42850E+01-4.33330E+00-5.00000E-01
 -1       230-1.42850E+01 4.33330E+00-5.00000E-01
 -1       231-1.48559E+01-1.46318E+00-5.00000E-01
 -1       232 1.31651E+01 7.03690E+00 5.00000E-01
 -1       233 1.42850E+01 4.33330E+00 5.00000E-01
 -1       234 7.03690E+00 1.31651E+01 5.00000E-01
 -1       235 4.33330E+00 1.42850E+01 5.00000E-01
 -1       236 9.47007E+00 1.15393E+01 5.00000E-01
 -1       237-1.31651E+01 7.03690E+00 5.00000E-01
 -1       238-1.15393E+01 9.47007E+00 5.00000E-01
 -1       239-1.42850E+01 4.33330E+00 5.00000E-01
 -1       240-6.31238E+00 2.28995E+00 5.00000E-01
 -1       241-6.70820E+00 2.99999E-01 5.00000E-01
 -1       242-4.95554E+00 4.53128E+00 5.00000E-01
 -1       243-6.08277E+00 2.84428E+00 5.00000E-01
 -1       244-2.84428E+00 6.08277E+00 5.00000E-01
 -1       245-7.03690E+00 1.31651E+01 5.00000E-01
 -1       246-4.53128E+00 4.95554E+00 5.00000E-01
 -1       247-2.84428E+00-6.08277E+00 5.00000E-01
 -1       248-4.53128E+00-4.95554E+00 5.00000E-01
 -1       249-7.03690E+00-1.31651E+01 5.00000E-01
 -1       250-4.95554E+00-4.53128E+00 5.00000E-01
 -1       251-6.08277E+00-2.84428E+00 5.00000E-01
 -1       252-9.47007E+00-1.15393E+01 5.00000E-01
 -1       253-1.15393E+01-9.47007E+00 5.00000E-01
 -1       254-1.31651E+01-7.03690E+00 5.00000E-01
 -1       255-1.42850E+01-4.33330E+00 5.00000E-01
 -1       256-1.48559E+01-1.46318E+00 5.00000E-01
 -1       257-6.31238E+00-2.28995E+00 5.00000E-01
 -1       258-6.70820E+00-2.99999E-01 5.00000E-01
 -1       259 2.99999E-01 6.70820E+00 5.00000E-01
 -1       260 2.28995E+00 6.31238E+00 5.00000E-01
 -1       261-2.99999E-01 6.70820E+00 5.00000E-01
 -1       262-1.46318E+00 1.48559E+01 5.00000E-01
 -1       263-2.28995E+00 6.31238E+00 5.00000E-01
 -1       264 4.53128E+00 4.95554E+00 5.00000E-01
 -1       265 2.84428E+00 6.08277E+00 5.00000E-01
 -1       266 6.70820E+00-2.99999E-01 5.00000E-01
 -1       267 6.31238E+00-2.28995E+00 5.00000E-01
 -1       268 1.48559E+01-1.46318E+00 5.00000E-01
 -1       269 1.42850E+01-4.33330E+00 5.00000E-01
 -1       270 6.08277E+00 2.84428E+00 5.00000E-01
 -1       271 4.95554E+00 4.53128E+00 5.00000E-01
 -1       272 1.31651E+01-7.03690E+00 5.00000E-01
 -1       273 1.15393E+01-9.47007E+00 5.00000E-01
 -1       274 6.08277E+00-2.84428E+00 5.00000E-01
 -1       275 4.95554E+00-4.53128E+00 5.00000E-01
 -1       276 6.70820E+00 2.99999E-01 5.00000E-01
 -1       277 6.31238E+00 2.28995E+00 5.00000E-01
 -1       278 9.47007E+00-1.15393E+01 5.00000E-01
 -1       279 7.03690E+00-1.31651E+01 5.00000E-01
 -1       280 4.53128E+00-4.95554E+00 5.00000E-01
 -1       281 2.84428E+00-6.08277E+00 5.00000E-01
 -1       282 4.33330E+00-1.42850E+01 5.00000E-01
 -1       283 2.28995E+00-6.31238E+00 5.00000E-01
 -1       284 2.99999E-01-6.70820E+00 5.00000E-01
 -1       285 1.46318E+00-1.48559E+01 5.00000E-01
 -1       286-2.99999E-01-6.70820E+00 5.00000E-01
 -1       287-2.28995E+00-6.31238E+00 5.00000E-01
 -1       288-4.33330E+00-1.42850E+01 5.00000E-01
 -1       289 6.70820E+00 2.99999E-01 6.95000E-01
 -1       290 6.70820E+00-2.99999E-01 6.95000E-01
 -1       291 6.31238E+00 2.28995E+00 6.95000E-01
 -1       292 6.08277E+00 2.84428E+00 6.95000E-01
 -1       293 4.95554E+00 4.53128E+00 6.95000E-01
 -1       294 4.53128E+00 4.95554E+00 6.95000E-01
 -1       295 2.84428E+00 6.08277E+00 6.95000E-01
 -1       296 2.28995E+00 6.31238E+00 6.95000E-01
 -1       297 2.99999E-01 6.70820E+00 6.95000E-01
 -1       298-2.99999E-01 6.70820E+00 6.95000E-01
 -1       299-2.28995E+00 6.31238E+00 6.95000E-01
 -1       300-2.84428E+00 6.08277E+00 6.95000E-01
 -1       301-4.53128E+00 4.95554E+00 6.95000E-01
 -1       302-4.95554E+00 4.53128E+00 6.95000E-01
 -1       303-6.08277E+00 2.84428E+00 6.95000E-01
 -1       304-6.31238E+00 2.28995E+00 6.95000E-01
 -1       305-6.70820E+00 2.99999E-01 6.95000E-01
 -1       306-6.70820E+00-2.99999E-01 6.95000E-01
 -1       307-6.08277E+00-2.84428E+00 6.95000E-01
 -1       308-6.31238E+00-2.28995E+00 6.95000E-01
 -1       309-4.53128E+00-4.95554E+00 6.95000E-01
 -1       310-4.95554E+00-4.53128E+00 6.95000E-01
 -1       311-2.28995E+00-6.31238E+00 6.95000E-01
 -1       312-2.84428E+00-6.08277E+00 6.95000E-01
 -1       313 2.99999E-01-6.70820E+00 6.95000E-01
 -1       314-2.99999E-01-6.70820E+00 6.95000E-01
 -1       315 2.84428E+00-6.08277E+00 6.95000E-01
 -1       316 2.28995E+00-6.31238E+00 6.95000E-01
 -1       317 4.95554E+00-4.53128E+00 6.95000E-01
 -1       318 4.53128E+00-4.95554E+00 6.95000E-01
 -1       319 6.31238E+00-2.28995E+00 6.95000E-01
 -1       320 6.08277E+00-2.84428E+00 6.95000E-01
 -1       321 1.47838E+01 2.19476E+00 5.00000E-01
 -1       322 1.49279E+01 7.31588E-01 5.00000E-01
 -1       323-1.49279E+01 7.31588E-01-5.00000E-01
 -1       324 2.19476E+00 1.47838E+01 5.00000E-01
 -1       325-8.90181E+00 1.20056E+01 5.00000E-01
 -1       326 1.40716E+01-5.03678E+00-5.00000E-01
 -1       327 1.44984E+01 3.62983E+00-5.00000E-01
 -1       328 1.28186E+01-7.68523E+00-5.00000E-01
 -1       329 1.35117E+01 6.38858E+00-5.00000E-01
 -1       330 1.10730E+01-1.00383E+01-5.00000E-01
 -1       331 8.90181E+00-1.20056E+01-5.00000E-01
 -1       332 1.00383E+01 1.10730E+01-5.00000E-01
 -1       333 6.38858E+00-1.35117E+01-5.00000E-01
 -1       334 7.68523E+00 1.28186E+01-5.00000E-01
 -1       335 3.62983E+00-1.44984E+01-5.00000E-01
 -1       336 3.62983E+00 1.44984E+01-5.00000E-01
 -1       337 5.03678E+00 1.40716E+01-5.00000E-01
 -1       338 2.19476E+00-1.47838E+01-5.00000E-01
 -1       339 7.31588E-01-1.49279E+01-5.00000E-01
 -1       340-2.19476E+00 1.47838E+01-5.00000E-01
 -1       341-7.31588E-01 1.49279E+01-5.00000E-01
 -1       342-5.03678E+00-1.40716E+01-5.00000E-01
 -1       343-7.68523E+00-1.28186E+01-5.00000E-01
 -1       344-7.68523E+00 1.28186E+01-5.00000E-01
 -1       345-6.38858E+00 1.35117E+01-5.00000E-01
 -1       346-1.00383E+01-1.10730E+01-5.00000E-01
 -1       347-1.20056E+01-8.90181E+00-5.00000E-01
 -1       348-1.20056E+01 8.90181E+00-5.00000E-01
 -1       349-1.10730E+01 1.00383E+01-5.00000E-01
 -1       350-1.35117E+01-6.38858E+00-5.00000E-01
 -1       351-1.28186E+01 7.68523E+00-5.00000E-01
 -1       352-1.44984E+01-3.62983E+00-5.00000E-01
 -1       353-1.40716E+01 5.03678E+00-5.00000E-01
 -1       354-1.49279E+01-7.31588E-01-5.00000E-01
 -1       355 1.35117E+01 6.38858E+00 5.00000E-01
 -1       356 7.68523E+00 1.28186E+01 5.00000E-01
 -1       357 1.00383E+01 1.10730E+01 5.00000E-01
 -1       358-1.10730E+01 1.00383E+01 5.00000E-01
 -1       359-1.40716E+01 5.03678E+00 5.00000E-01
 -1       360-4.95320E+00 2.99999E-01 5.00000E-01
 -1       361-4.46136E+00 2.17267E+00 5.00000E-01
 -1       362-3.29031E+00-3.71457E+00 5.00000E-01
 -1       363-5.77226E+00-6.19652E+00 5.00000E-01
 -1       364-3.71457E+00-3.29031E+00 5.00000E-01
 -1       365-4.46136E+00-2.17267E+00 5.00000E-01
 -1       366-7.70417E+00-3.51589E+00 5.00000E-01
 -1       367-1.10730E+01-1.00383E+01 5.00000E-01
 -1       368-1.28186E+01-7.68523E+00 5.00000E-01
 -1       369-1.47838E+01-2.19476E+00 5.00000E-01
 -1       370-8.46320E+00-2.99999E-01 5.00000E-01
 -1       371 2.99999E-01 4.95320E+00 5.00000E-01
 -1       372 1.61834E+00 4.69097E+00 5.00000E-01
 -1       373 2.96156E+00 7.93378E+00 5.00000E-01
 -1       374-2.19476E+00 1.47838E+01 5.00000E-01
 -1       375-1.61834E+00 4.69097E+00 5.00000E-01
 -1       376 2.17267E+00 4.46136E+00 5.00000E-01
 -1       377 4.95320E+00-2.99999E-01 5.00000E-01
 -1       378 7.93378E+00-2.96156E+00 5.00000E-01
 -1       379 7.70417E+00 3.51589E+00 5.00000E-01
 -1       380 3.71457E+00 3.29031E+00 5.00000E-01
 -1       381 1.20056E+01-8.90181E+00 5.00000E-01
 -1       382 7.70417E+00-3.51589E+00 5.00000E-01
 -1       383 4.46136E+00-2.17267E+00 5.00000E-01
 -1       384 3.71457E+00-3.29031E+00 5.00000E-01
 -1       385 6.19652E+00-5.77226E+00 5.00000E-01
 -1       386 1.00383E+01-1.10730E+01 5.00000E-01
 -1       387 7.68523E+00-1.28186E+01 5.00000E-01
 -1       388 3.29031E+00-3.71457E+00 5.00000E-01
 -1       389 3.51589E+00-7.70417E+00 5.00000E-01
 -1       390 2.99999E-01-8.46320E+00 5.00000E-01
 -1       391 2.19476E+00-1.47838E+01 5.00000E-01
 -1       392-2.96156E+00-7.93378E+00 5.00000E-01
 -1       393-5.83070E+00 2.99999E-01 5.00000E-01
 -1       394-4.07570E+00 2.99999E-01 5.00000E-01
 -1       395-5.27206E+00 2.50848E+00 5.00000E-01
 -1       396-3.65065E+00 1.83686E+00 5.00000E-01
 -1       397-2.66983E+00-3.09409E+00 5.00000E-01
 -1       398-3.91080E+00-4.33506E+00 5.00000E-01
 -1       399-5.15177E+00-5.57603E+00 5.00000E-01
 -1       400-6.39274E+00-6.81700E+00 5.00000E-01
 -1       401-3.09409E+00-2.66983E+00 5.00000E-01
 -1       402-3.65065E+00-1.83686E+00 5.00000E-01
 -1       403-5.27206E+00-2.50848E+00 5.00000E-01
 -1       404-6.89347E+00-3.18008E+00 5.00000E-01
 -1       405-8.51488E+00-3.85170E+00 5.00000E-01
 -1       406-7.58570E+00-2.99999E-01 5.00000E-01
 -1       407-9.34070E+00-2.99999E-01 5.00000E-01
 -1       408 2.99999E-01 5.83070E+00 5.00000E-01
 -1       409 2.99999E-01 4.07570E+00 5.00000E-01
 -1       410 1.28254E+00 3.88026E+00 5.00000E-01
 -1       411 1.95415E+00 5.50167E+00 5.00000E-01
 -1       412 2.62576E+00 7.12308E+00 5.00000E-01
 -1       413 3.29737E+00 8.74449E+00 5.00000E-01
 -1       414-1.95415E+00 5.50167E+00 5.00000E-01
 -1       415-1.28254E+00 3.88026E+00 5.00000E-01
 -1       416 1.83686E+00 3.65065E+00 5.00000E-01
 -1       417 5.83070E+00-2.99999E-01 5.00000E-01
 -1       418 4.07570E+00-2.99999E-01 5.00000E-01
 -1       419 7.12308E+00-2.62576E+00 5.00000E-01
 -1       420 8.74449E+00-3.29737E+00 5.00000E-01
 -1       421 6.89347E+00 3.18008E+00 5.00000E-01
 -1       422 8.51488E+00 3.85170E+00 5.00000E-01
 -1       423 4.33506E+00 3.91080E+00 5.00000E-01
 -1       424 3.09409E+00 2.66983E+00 5.00000E-01
 -1       425 6.89347E+00-3.18008E+00 5.00000E-01
 -1       426 3.65065E+00-1.83686E+00 5.00000E-01
 -1       427 3.09409E+00-2.66983E+00 5.00000E-01
 -1       428 4.33506E+00-3.91080E+00 5.00000E-01
 -1       429 5.57603E+00-5.15177E+00 5.00000E-01
 -1       430 6.81700E+00-6.39274E+00 5.00000E-01
 -1       431 2.66983E+00-3.09409E+00 5.00000E-01
 -1       432 3.18008E+00-6.89347E+00 5.00000E-01
 -1       433 3.85170E+00-8.51488E+00 5.00000E-01
 -1       434 2.99999E-01-7.58570E+00 5.00000E-01
 -1       435 2.99999E-01-9.34070E+00 5.00000E-01
 -1       436-2.62576E+00-7.12308E+00 5.00000E-01
 -1       437-3.29737E+00-8.74449E+00 5.00000E-01
 -1       438 1.47838E+01 2.19476E+00-5.00000E-01
 -1       439 1.49279E+01 7.31588E-01-5.00000E-01
 -1       440-1.47838E+01 2.19476E+00-5.00000E-01
 -1       441-1.47838E+01 2.19476E+00 5.00000E-01
 -1       442-1.49279E+01 7.31588E-01 5.00000E-01
 -1       443 7.31588E-01 1.49279E+01 5.00000E-01
 -1       444 7.31588E-01 1.49279E+01-5.00000E-01
 -1       445 2.19476E+00 1.47838E+01-5.00000E-01
 -1       446-2.19476E+00-1.47838E+01 5.00000E-01
 -1       447-7.31588E-01-1.49279E+01 5.00000E-01
 -1       448-7.31588E-01-1.49279E+01-5.00000E-01
 -1       449-2.19476E+00-1.47838E+01-5.00000E-01
 -1       450 1.20056E+01 8.90181E+00 5.00000E-01
 -1       451 1.10730E+01 1.00383E+01 5.00000E-01
 -1       452 1.10730E+01 1.00383E+01-5.00000E-01
 -1       453 1.20056E+01 8.90181E+00-5.00000E-01
 -1       454-1.00383E+01 1.10730E+01 5.00000E-01
 -1       455-1.00383E+01 1.10730E+01-5.00000E-01
 -1       456-8.90181E+00 1.20056E+01-5.00000E-01
 -1       457-3.62983E+00 1.44984E+01 5.00000E-01
 -1       458-5.03678E+00 1.40716E+01 5.00000E-01
 -1       459-5.03678E+00 1.40716E+01-5.00000E-01
 -1       460-3.62983E+00 1.44984E+01-5.00000E-01
 -1       461 1.47838E+01-2.19476E+00-5.00000E-01
 -1       462 1.49279E+01-7.31588E-01-5.00000E-01
 -1       463 1.44984E+01-3.62983E+00-5.00000E-01
 -1       464 1.40716E+01 5.03678E+00-5.00000E-01
 -1       465 1.35117E+01-6.38858E+00-5.00000E-01
 -1       466 1.28186E+01 7.68523E+00-5.00000E-01
 -1       467 1.20056E+01-8.90181E+00-5.00000E-01
 -1       468 1.00383E+01-1.10730E+01-5.00000E-01
 -1       469 8.90181E+00 1.20056E+01-5.00000E-01
 -1       470 7.68523E+00-1.28186E+01-5.00000E-01
 -1       471 6.38858E+00 1.35117E+01-5.00000E-01
 -1       472 5.03678E+00-1.40716E+01-5.00000E-01
 -1       473-3.62983E+00-1.44984E+01-5.00000E-01
 -1       474-6.38858E+00-1.35117E+01-5.00000E-01
 -1       475-8.90181E+00-1.20056E+01-5.00000E-01
 -1       476-1.10730E+01-1.00383E+01-5.00000E-01
 -1       477-1.28186E+01-7.68523E+00-5.00000E-01
 -1       478-1.35117E+01 6.38858E+00-5.00000E-01
 -1       479-1.40716E+01-5.03678E+00-5.00000E-01
 -1       480-1.44984E+01 3.62983E+00-5.00000E-01
 -1       481-1.47838E+01-2.19476E+00-5.00000E-01
 -1       482 1.28186E+01 7.68523E+00 5.00000E-01
 -1       483 1.44984E+01 3.62983E+00 5.00000E-01
 -1       484 1.40716E+01 5.03678E+00 5.00000E-01
 -1       485 6.38858E+00 1.35117E+01 5.00000E-01
 -1       486 5.03678E+00 1.40716E+01 5.00000E-01
 -1       487 3.62983E+00 1.44984E+01 5.00000E-01
 -1       488 8.90181E+00 1.20056E+01 5.00000E-01
 -1       489-1.28186E+01 7.68523E+00 5.00000E-01
 -1       490-1.35117E+01 6.38858E+00 5.00000E-01
 -1       491-1.20056E+01 8.90181E+00 5.00000E-01
 -1       492-1.44984E+01 3.62983E+00 5.00000E-01
 -1       493-7.93378E+00 2.96156E+00 5.00000E-01
 -1       494-4.69097E+00 1.61834E+00 5.00000E-01
 -1       495-8.46320E+00 2.99999E-01 5.00000E-01
 -1       496-6.19652E+00 5.77226E+00 5.00000E-01
 -1       497-3.71457E+00 3.29031E+00 5.00000E-01
 -1       498-7.70417E+00 3.51589E+00 5.00000E-01
 -1       499-3.29031E+00 3.71457E+00 5.00000E-01
 -1       500-7.68523E+00 1.28186E+01 5.00000E-01
 -1       501-3.51589E+00 7.70417E+00 5.00000E-01
 -1       502-2.17267E+00 4.46136E+00 5.00000E-01
 -1       503-6.38858E+00 1.35117E+01 5.00000E-01
 -1       504-5.77226E+00 6.19652E+00 5.00000E-01
 -1       505-2.17267E+00-4.46136E+00 5.00000E-01
 -1       506-3.51589E+00-7.70417E+00 5.00000E-01
 -1       507-6.38858E+00-1.35117E+01 5.00000E-01
 -1       508-7.68523E+00-1.28186E+01 5.00000E-01
 -1       509-6.19652E+00-5.77226E+00 5.00000E-01
 -1       510-8.90181E+00-1.20056E+01 5.00000E-01
 -1       511-1.00383E+01-1.10730E+01 5.00000E-01
 -1       512-1.20056E+01-8.90181E+00 5.00000E-01
 -1       513-1.35117E+01-6.38858E+00 5.00000E-01
 -1       514-1.40716E+01-5.03678E+00 5.00000E-01
 -1       515-1.44984E+01-3.62983E+00 5.00000E-01
 -1       516-1.49279E+01-7.31588E-01 5.00000E-01
 -1       517-4.69097E+00-1.61834E+00 5.00000E-01
 -1       518-7.93378E+00-2.96156E+00 5.00000E-01
 -1       519-4.95320E+00-2.99999E-01 5.00000E-01
 -1       520 2.99999E-01 8.46320E+00 5.00000E-01
 -1       521-2.99999E-01 8.46320E+00 5.00000E-01
 -1       522-2.99999E-01 4.95320E+00 5.00000E-01
 -1       523-7.31588E-01 1.49279E+01 5.00000E-01
 -1       524-2.96156E+00 7.93378E+00 5.00000E-01
 -1       525 5.77226E+00 6.19652E+00 5.00000E-01
 -1       526 3.29031E+00 3.71457E+00 5.00000E-01
 -1       527 3.51589E+00 7.70417E+00 5.00000E-01
 -1       528 8.46320E+00-2.99999E-01 5.00000E-01
 -1       529 4.69097E+00-1.61834E+00 5.00000E-01
 -1       530 4.46136E+00 2.17267E+00 5.00000E-01
 -1       531 1.44984E+01-3.62983E+00 5.00000E-01
 -1       532 1.49279E+01-7.31588E-01 5.00000E-01
 -1       533 1.47838E+01-2.19476E+00 5.00000E-01
 -1       534 1.40716E+01-5.03678E+00 5.00000E-01
 -1       535 6.19652E+00 5.77226E+00 5.00000E-01
 -1       536 1.35117E+01-6.38858E+00 5.00000E-01
 -1       537 1.28186E+01-7.68523E+00 5.00000E-01
 -1       538 1.10730E+01-1.00383E+01 5.00000E-01
 -1       539 8.46320E+00 2.99999E-01 5.00000E-01
 -1       540 4.95320E+00 2.99999E-01 5.00000E-01
 -1       541 4.69097E+00 1.61834E+00 5.00000E-01
 -1       542 7.93378E+00 2.96156E+00 5.00000E-01
 -1       543 8.90181E+00-1.20056E+01 5.00000E-01
 -1       544 6.38858E+00-1.35117E+01 5.00000E-01
 -1       545 5.77226E+00-6.19652E+00 5.00000E-01
 -1       546 2.17267E+00-4.46136E+00 5.00000E-01
 -1       547 2.99999E-01-4.95320E+00 5.00000E-01
 -1       548 1.61834E+00-4.69097E+00 5.00000E-01
 -1       549 5.03678E+00-1.40716E+01 5.00000E-01
 -1       550 3.62983E+00-1.44984E+01 5.00000E-01
 -1       551 2.96156E+00-7.93378E+00 5.00000E-01
 -1       552 7.31588E-01-1.49279E+01 5.00000E-01
 -1       553-2.99999E-01-4.95320E+00 5.00000E-01
 -1       554-2.99999E-01-8.46320E+00 5.00000E-01
 -1       555-1.61834E+00-4.69097E+00 5.00000E-01
 -1       556-3.62983E+00-1.44984E+01 5.00000E-01
 -1       557-5.03678E+00-1.40716E+01 5.00000E-01
 -1       558 8.46320E+00-2.99999E-01 6.95000E-01
 -1       559 4.95320E+00 2.99999E-01 6.95000E-01
 -1       560 8.46320E+00 2.99999E-01 6.95000E-01
 -1       561 4.95320E+00-2.99999E-01 6.95000E-01
 -1       562 4.46136E+00 2.17267E+00 6.95000E-01
 -1       563 7.93378E+00 2.96156E+00 6.95000E-01
 -1       564 4.69097E+00 1.61834E+00 6.95000E-01
 -1       565 7.70417E+00 3.51589E+00 6.95000E-01
 -1       566 3.29031E+00 3.71457E+00 6.95000E-01
 -1       567 6.19652E+00 5.77226E+00 6.95000E-01
 -1       568 3.71457E+00 3.29031E+00 6.95000E-01
 -1       569 5.77226E+00 6.19652E+00 6.95000E-01
 -1       570 1.61834E+00 4.69097E+00 6.95000E-01
 -1       571 3.51589E+00 7.70417E+00 6.95000E-01
 -1       572 2.17267E+00 4.46136E+00 6.95000E-01
 -1       573 2.96156E+00 7.93378E+00 6.95000E-01
 -1       574-2.99999E-01 4.95320E+00 6.95000E-01
 -1       575 2.99999E-01 8.46320E+00 6.95000E-01
 -1       576 2.99999E-01 4.95320E+00 6.95000E-01
 -1       577-2.99999E-01 8.46320E+00 6.95000E-01
 -1       578-2.17267E+00 4.46136E+00 6.95000E-01
 -1       579-2.96156E+00 7.93378E+00 6.95000E-01
 -1       580-1.61834E+00 4.69097E+00 6.95000E-01