
 displacements (vx,vy,vz) for set NALL and time  0.1000000E+01

         1  0.000000E+00  0.000000E+00  0.000000E+00
         2  0.000000E+00  0.000000E+00  0.000000E+00
         3  0.000000E+00  0.000000E+00  0.000000E+00
         4  0.000000E+00  0.000000E+00  0.000000E+00
         5  0.000000E+00  0.000000E+00  0.000000E+00
         6  0.000000E+00  0.000000E+00  0.000000E+00
         7  0.000000E+00  0.000000E+00  0.000000E+00
         8  0.000000E+00  0.000000E+00  0.000000E+00
         9  0.000000E+00  0.000000E+00  0.000000E+00
        10  0.000000E+00  0.000000E+00  0.000000E+00
        11  0.000000E+00  0.000000E+00  0.000000E+00
        12  0.000000E+00  0.000000E+00  0.000000E+00
        13  0.000000E+00  0.000000E+00  0.000000E+00
        14  0.000000E+00  0.000000E+00  0.000000E+00
        15  0.000000E+00  0.000000E+00  0.000000E+00
        16  0.000000E+00  0.000000E+00  0.000000E+00
        17  0.000000E+00  0.000000E+00  0.000000E+00
        18  0.000000E+00  0.000000E+00  0.000000E+00
        19  0.000000E+00  0.000000E+00  0.000000E+00
        20  0.000000E+00  0.000000E+00  0.000000E+00
        21  0.000000E+00  0.000000E+00  0.000000E+00
        22  0.000000E+00  0.000000E+00  0.000000E+00
        23  0.000000E+00  0.000000E+00  0.000000E+00
        24  0.000000E+00  0.000000E+00  0.000000E+00
        25  0.000000E+00  0.000000E+00  0.000000E+00
        26  0.000000E+00  0.000000E+00  0.000000E+00
        27  0.000000E+00  0.000000E+00  0.000000E+00
        28  0.000000E+00  0.000000E+00  0.000000E+00
        29  0.000000E+00  0.000000E+00  0.000000E+00
        30  0.000000E+00  0.000000E+00  0.000000E+00
        31 -7.087508E-05  1.182825E-04  4.046001E-03
        32  0.000000E+00  0.000000E+00  0.000000E+00
        33 -7.524035E-05  1.077316E-04  5.083750E-03
        34  0.000000E+00  0.000000E+00  0.000000E+00
        35  0.000000E+00  0.000000E+00  0.000000E+00
        36  1.665428E-04  1.103330E-04  1.443020E-03
        37  2.142190E-05  1.140547E-04  3.001034E-03
        38  1.250186E-04 -1.149601E-04  2.120547E-03
        39  0.000000E+00  0.000000E+00  0.000000E+00
        40 -4.945123E-05 -1.324869E-04  3.945381E-03
        41  0.000000E+00  0.000000E+00  0.000000E+00
        42  0.000000E+00  0.000000E+00  0.000000E+00
        43 -4.589491E-05 -1.455664E-04  5.248778E-03
        44 -1.101213E-04 -1.496855E-05  5.506119E-03
        45  0.000000E+00  0.000000E+00  0.000000E+00
        46  0.000000E+00  0.000000E+00  0.000000E+00
        47 -1.076501E-04  4.344069E-06  4.514864E-03
        48  0.000000E+00  0.000000E+00  0.000000E+00
        49  2.242113E-04 -1.340594E-05  4.399260E-04
        50  0.000000E+00  0.000000E+00  0.000000E+00
        51  0.000000E+00  0.000000E+00  0.000000E+00
        52  2.459792E-04  1.558346E-04  2.767245E-03
        53  2.593978E-04 -1.737195E-04 -2.627277E-03
        54 -8.692537E-05 -1.010421E-05 -4.539709E-03
        55 -4.684173E-05 -1.371888E-04 -4.037034E-03
        56 -4.301529E-05  5.183156E-05 -4.074663E-03
        57 -8.670446E-05 -1.179334E-05 -5.910940E-03
        58  0.000000E+00  0.000000E+00  0.000000E+00
        59  9.190556E-05 -2.091750E-04 -4.464449E-03
        60  0.000000E+00  0.000000E+00  0.000000E+00
        61  0.000000E+00  0.000000E+00  0.000000E+00
        62  0.000000E+00  0.000000E+00  0.000000E+00
        63  1.327952E-04  2.036491E-04 -4.433507E-03
        64 -1.641734E-05  1.160350E-04 -5.339155E-03
        65  4.515591E-05  1.160152E-04 -3.576348E-03
        66 -4.660378E-05 -1.370901E-04 -4.373327E-03
        67  2.511412E-04  1.345093E-04 -2.587380E-03
        68  0.000000E+00  0.000000E+00  0.000000E+00
        69  1.881860E-04  9.844805E-05 -1.443207E-03
        70  1.567285E-04 -1.843821E-06 -3.708302E-04
        71  3.262703E-04 -3.217297E-07 -5.157659E-04
        72  1.320404E-04 -9.800771E-05  1.334996E-03
        73  0.000000E+00  0.000000E+00  0.000000E+00
        74  0.000000E+00  0.000000E+00  0.000000E+00
        75  0.000000E+00  0.000000E+00  0.000000E+00
        76  0.000000E+00  0.000000E+00  0.000000E+00
        77  0.000000E+00  0.000000E+00  0.000000E+00
        78  0.000000E+00  0.000000E+00  0.000000E+00
        79  0.000000E+00  0.000000E+00  0.000000E+00
        80  0.000000E+00  0.000000E+00  0.000000E+00
        81  0.000000E+00  0.000000E+00  0.000000E+00
        82  0.000000E+00  0.000000E+00  0.000000E+00
        83  0.000000E+00  0.000000E+00  0.000000E+00
        84  0.000000E+00  0.000000E+00  0.000000E+00
        85  0.000000E+00  0.000000E+00  0.000000E+00
        86  0.000000E+00  0.000000E+00  0.000000E+00
        87  0.000000E+00  0.000000E+00  0.000000E+00
        88  0.000000E+00  0.000000E+00  0.000000E+00
        89  0.000000E+00  0.000000E+00  0.000000E+00
        90  0.000000E+00  0.000000E+00  0.000000E+00
        91 -4.972704E-05 -3.115498E-06 -4.539709E-03
        92 -4.973304E-05 -4.804342E-06 -5.878683E-03
        93 -4.951654E-05 -4.804449E-06 -5.910940E-03
        94 -4.951079E-05 -3.115592E-06 -4.571965E-03
        95  1.102574E-05 -1.899046E-04 -5.235497E-03
        96  1.204043E-05 -1.916664E-04 -4.373327E-03
        97  1.180257E-05 -1.917650E-04 -4.037034E-03
        98  1.126471E-05 -1.898056E-04 -5.571790E-03
        99 -4.737071E-05 -1.352267E-04 -5.571790E-03
       100  2.092789E-04 -2.755814E-04 -3.864667E-03
       101  1.592784E-04 -2.369384E-04 -3.456199E-03
       102  2.035960E-04 -2.812644E-04 -4.464449E-03
       103  5.326118E-05 -1.591716E-04 -2.856402E-03
       104  1.649607E-04 -2.312562E-04 -2.856402E-03
       105  4.757900E-05 -1.648535E-04 -3.456199E-03
       106  2.665251E-04 -1.565132E-04 -1.824548E-03
       107  4.328492E-04 -2.094583E-04 -1.824548E-03
       108  2.986359E-04 -1.538619E-04 -1.294013E-03
       109  1.251802E-04 -1.181275E-04 -2.096748E-03
       110  4.257219E-04 -2.266648E-04 -2.627277E-03
       111  2.915082E-04 -1.710699E-04 -2.096748E-03
       112  3.397612E-04 -1.843034E-06 -4.283831E-04
       113  5.359623E-04  2.322072E-05  4.771602E-04
       114  1.567283E-04  2.162257E-05  5.347264E-04
       115  3.529322E-04  2.322172E-05  5.347263E-04
       116  5.359623E-04 -2.441031E-07 -4.283831E-04
       117  3.529323E-04 -2.450485E-07 -3.708301E-04
       118  2.504340E-04  1.450798E-04  1.958096E-03
       119  4.134243E-04  2.097088E-04  2.767245E-03
       120  4.178792E-04  1.989540E-04  1.958096E-03
       121  1.620880E-04  1.210878E-04  2.252182E-03
       122  3.339929E-04  1.642042E-04  1.443020E-03
       123  3.295379E-04  1.749594E-04  2.252182E-03
       124  2.216164E-04  2.799443E-04  3.874317E-03
       125  1.276481E-04  1.859707E-04  3.001034E-03
       126  1.033486E-04  2.200725E-04  4.455691E-03
       127  1.153962E-04  2.080249E-04  3.874317E-03
       128  2.095686E-04  2.919920E-04  4.455691E-03
       129  1.156002E-04  1.980184E-04  3.582418E-03
       130  9.374196E-06  1.261022E-04  3.582418E-03
       131 -1.975308E-05  1.663635E-04  4.046001E-03
       132 -7.388841E-05  1.071716E-04  5.379058E-03
       133 -1.840048E-05  1.658031E-04  4.341313E-03
       134 -2.412773E-05  1.558151E-04  5.083750E-03
       135 -2.277594E-05  1.552551E-04  5.379058E-03
       136 -1.076447E-04 -1.496848E-05  5.501206E-03
       137 -8.025199E-05 -1.603318E-05  5.501206E-03
       138 -8.272859E-05 -1.603312E-05  5.506119E-03
       139 -8.272182E-05  3.279410E-06  4.519778E-03
       140 -1.101253E-04  4.344108E-06  4.519778E-03
       141 -8.024667E-05  3.279349E-06  4.514864E-03
       142 -5.104369E-05 -1.331463E-04  4.277127E-03
       143  6.542789E-06 -2.016460E-04  5.248778E-03
       144  8.135768E-06 -2.009863E-04  4.917034E-03
       145  1.402859E-06 -1.892234E-04  4.277127E-03
       146  2.995451E-06 -1.885638E-04  3.945381E-03
       147  1.606452E-04 -2.281652E-04  3.430219E-03
       148  1.672974E-04 -2.215131E-04  2.860250E-03
       149  1.164170E-04 -2.015238E-04  3.646600E-03
       150  2.125278E-04 -2.800537E-04  4.216556E-03
       151  5.787508E-05 -1.562906E-04  3.430219E-03
       152  1.097650E-04 -2.081760E-04  4.216556E-03
       153  6.452710E-05 -1.496386E-04  2.860250E-03
       154  2.191800E-04 -2.734015E-04  3.646600E-03
       155  2.866946E-04 -1.694035E-04  2.120547E-03
       156  2.572486E-04 -1.697301E-04  2.537069E-03
       157  4.189212E-04 -2.241759E-04  2.537069E-03
       158  4.259434E-04 -2.072231E-04  1.751524E-03
       159  2.937166E-04 -1.524510E-04  1.334996E-03
       160  5.142237E-04 -2.771736E-06 -5.157659E-04
       161  2.242111E-04 -3.213393E-07 -4.275616E-04
       162  4.121668E-04 -2.771625E-06 -4.275615E-04
       163  3.262703E-04 -1.340581E-05  3.517114E-04
       164  4.121668E-04 -1.585645E-05  4.399260E-04
       165  5.142237E-04 -1.585597E-05  3.517114E-04
       166  3.507276E-04  1.552255E-04 -1.443207E-03
       167  3.471968E-04  1.637496E-04 -2.236571E-03
       168  1.846552E-04  1.069719E-04 -2.236571E-03
       169  4.172099E-04  1.827660E-04 -1.794022E-03
       170  2.546717E-04  1.259861E-04 -1.794022E-03
       171  4.136793E-04  1.912892E-04 -2.587380E-03
       172  1.523702E-04  1.895518E-04 -3.576348E-03
       173  2.400027E-04  2.771899E-04 -4.433507E-03
       174  1.636061E-04  1.783160E-04 -2.986451E-03
       175  2.512380E-04  2.659546E-04 -3.843619E-03
       176  7.102561E-06  1.043140E-04 -4.386970E-03
       177 -5.124743E-05  5.524126E-05 -4.386970E-03
       178  4.192384E-05  1.651106E-04 -5.339155E-03
       179  3.369244E-05  1.685201E-04 -5.651461E-03
       180 -2.464868E-05  1.194446E-04 -5.651461E-03
       181  1.533478E-05  1.009042E-04 -4.074663E-03
       182 -8.692097E-05 -1.179339E-05 -5.878683E-03
       183 -8.670914E-05 -1.010430E-05 -4.571965E-03
       184 -4.760987E-05 -1.353257E-04 -5.235497E-03
       185  9.758829E-05 -2.034921E-04 -3.864667E-03
       186  1.323079E-04 -1.009199E-04 -1.294013E-03
       187  3.397612E-04  2.162160E-05  4.771602E-04
       188 -6.952230E-05  1.177220E-04  4.341313E-03
       189 -4.430203E-05 -1.449066E-04  4.917034E-03
       190  2.642707E-04 -1.527774E-04  1.751524E-03
       191  1.440304E-04  1.924138E-04 -3.843619E-03
       192  5.639163E-05  1.047796E-04 -2.986451E-03
       193  0.000000E+00  0.000000E+00  0.000000E+00
       194  0.000000E+00  0.000000E+00  0.000000E+00
       195  0.000000E+00  0.000000E+00  0.000000E+00
       196  0.000000E+00  0.000000E+00  0.000000E+00
       197  0.000000E+00  0.000000E+00  0.000000E+00
       198  0.000000E+00  0.000000E+00  0.000000E+00
       199  0.000000E+00  0.000000E+00  0.000000E+00
       200  0.000000E+00  0.000000E+00  0.000000E+00
       201  0.000000E+00  0.000000E+00  0.000000E+00
       202  0.000000E+00  0.000000E+00  0.000000E+00
       203  0.000000E+00  0.000000E+00  0.000000E+00
       204  0.000000E+00  0.000000E+00  0.000000E+00
       205  0.000000E+00  0.000000E+00  0.000000E+00
       206  0.000000E+00  0.000000E+00  0.000000E+00
       207  0.000000E+00  0.000000E+00  0.000000E+00
       208  0.000000E+00  0.000000E+00  0.000000E+00
       209  0.000000E+00  0.000000E+00  0.000000E+00
       210  0.000000E+00  0.000000E+00  0.000000E+00
       211  0.000000E+00  0.000000E+00  0.000000E+00
       212  0.000000E+00  0.000000E+00  0.000000E+00
       213  0.000000E+00  0.000000E+00  0.000000E+00
       214  0.000000E+00  0.000000E+00  0.000000E+00
       215  0.000000E+00  0.000000E+00  0.000000E+00
       216  0.000000E+00  0.000000E+00  0.000000E+00
       217  0.000000E+00  0.000000E+00  0.000000E+00
       218  0.000000E+00  0.000000E+00  0.000000E+00
       219  0.000000E+00  0.000000E+00  0.000000E+00
       220  0.000000E+00  0.000000E+00  0.000000E+00
       221  0.000000E+00  0.000000E+00  0.000000E+00
       222  0.000000E+00  0.000000E+00  0.000000E+00
       223  0.000000E+00  0.000000E+00  0.000000E+00
       224  0.000000E+00  0.000000E+00  0.000000E+00
       225  0.000000E+00  0.000000E+00  0.000000E+00
       226  0.000000E+00  0.000000E+00  0.000000E+00
       227  0.000000E+00  0.000000E+00  0.000000E+00
       228  0.000000E+00  0.000000E+00  0.000000E+00
       229  0.000000E+00  0.000000E+00  0.000000E+00
       230  0.000000E+00  0.000000E+00  0.000000E+00
       231  0.000000E+00  0.000000E+00  0.000000E+00
       232  0.000000E+00  0.000000E+00  0.000000E+00
       233  0.000000E+00  0.000000E+00  0.000000E+00
       234  0.000000E+00  0.000000E+00  0.000000E+00
       235  0.000000E+00  0.000000E+00  0.000000E+00
       236  0.000000E+00  0.000000E+00  0.000000E+00
       237  0.000000E+00  0.000000E+00  0.000000E+00
       238  0.000000E+00  0.000000E+00  0.000000E+00
       239  0.000000E+00  0.000000E+00  0.000000E+00
       240  0.000000E+00  0.000000E+00  0.000000E+00
       241 -7.170576E-05  1.124459E-04  4.860239E-03
       242 -1.101235E-04 -5.309030E-06  5.013010E-03
       243  5.636100E-05  1.730875E-04  4.019091E-03
       244 -7.305869E-05  1.130063E-04  4.564930E-03
       245  2.040342E-04  1.384614E-04  2.509736E-03
       246  6.840902E-05  1.610397E-04  3.437713E-03
       247  0.000000E+00  0.000000E+00  0.000000E+00
       248  1.911335E-04 -1.423450E-04  2.328827E-03
       249  9.047230E-05 -1.755812E-04  3.253468E-03
       250  0.000000E+00  0.000000E+00  0.000000E+00
       251  8.381995E-05 -1.822334E-04  3.823428E-03
       252 -4.687724E-05 -1.386962E-04  4.431258E-03
       253  0.000000E+00  0.000000E+00  0.000000E+00
       254  0.000000E+00  0.000000E+00  0.000000E+00
       255  0.000000E+00  0.000000E+00  0.000000E+00
       256  0.000000E+00  0.000000E+00  0.000000E+00
       257  0.000000E+00  0.000000E+00  0.000000E+00
       258 -4.846962E-05 -1.393557E-04  4.763003E-03
       259 -1.076475E-04 -5.309151E-06  5.008095E-03
       260  2.482474E-04 -1.843241E-06 -3.996053E-04
       261  1.994182E-04 -1.287175E-04 -1.559305E-03
       262  2.482474E-04  2.162209E-05  5.059426E-04
       263  0.000000E+00  0.000000E+00  0.000000E+00
       264  2.084890E-04  1.277066E-04  1.700584E-03
       265  7.542352E-05 -1.813312E-04 -3.360591E-03
       266  1.922908E-04 -1.459245E-04 -2.362036E-03
       267 -8.692398E-05 -1.094786E-05 -5.209253E-03
       268 -3.794698E-05  8.734461E-05 -5.019267E-03
       269  0.000000E+00  0.000000E+00  0.000000E+00
       270  0.000000E+00  0.000000E+00  0.000000E+00
       271 -4.722570E-05 -1.362595E-04 -4.636318E-03
       272  6.974129E-05 -1.870134E-04 -3.960379E-03
       273  0.000000E+00  0.000000E+00  0.000000E+00
       274  0.000000E+00  0.000000E+00  0.000000E+00
       275 -2.971637E-05  8.393537E-05 -4.706961E-03
       276  8.897672E-05  1.598332E-04 -4.004971E-03
       277 -8.670681E-05 -1.094797E-05 -5.241509E-03
       278 -4.698627E-05 -1.361603E-04 -4.972610E-03
       279  0.000000E+00  0.000000E+00  0.000000E+00
       280  1.002120E-04  1.485980E-04 -3.415080E-03
       281  2.178992E-04  1.207412E-04 -2.411994E-03
       282  0.000000E+00  0.000000E+00  0.000000E+00
       283  2.214298E-04  1.122177E-04 -1.618634E-03
       284  2.752416E-04 -3.215867E-07 -4.716651E-04
       285  0.000000E+00  0.000000E+00  0.000000E+00
       286  2.752416E-04 -1.340580E-05  3.958160E-04
       287  1.981554E-04 -1.253929E-04  1.543280E-03
       288  0.000000E+00  0.000000E+00  0.000000E+00
       289 -4.951268E-05 -3.959239E-06 -5.241509E-03
       290 -4.972982E-05 -3.959181E-06 -5.209253E-03
       291  1.165421E-05 -1.907374E-04 -4.972610E-03
       292  1.141482E-05 -1.908366E-04 -4.636318E-03
       293  1.814363E-04 -2.590999E-04 -3.960379E-03
       294  1.871189E-04 -2.534174E-04 -3.360591E-03
       295  3.586168E-04 -1.988676E-04 -2.362036E-03
       296  3.657443E-04 -1.816604E-04 -1.559305E-03
       297  4.444495E-04 -2.445416E-07 -3.996053E-04
       298  4.444494E-04  2.322106E-05  5.059426E-04
       299  3.759360E-04  1.815790E-04  1.700584E-03
       300  3.714810E-04  1.923341E-04  2.509737E-03
       301  1.746323E-04  2.329569E-04  3.437713E-03
       302  1.625843E-04  2.450049E-04  4.019091E-03
       303 -2.194062E-05  1.610881E-04  4.564930E-03
       304 -2.058786E-05  1.605278E-04  4.860239E-03
       305 -8.272489E-05 -6.373771E-06  5.013009E-03
       306 -8.024883E-05 -6.373837E-06  5.008095E-03
       307  5.565489E-06 -1.947740E-04  4.431258E-03
       308  3.972981E-06 -1.954337E-04  4.763003E-03
       309  1.932385E-04 -2.474568E-04  3.253468E-03
       310  1.865861E-04 -2.541092E-04  3.823428E-03
       311  3.598298E-04 -1.798370E-04  1.543280E-03
       312  3.528079E-04 -1.967892E-04  2.328827E-03
       313  4.631958E-04 -2.771773E-06 -4.716651E-04
       314  4.631958E-04 -1.585616E-05  3.958160E-04
       315  3.804389E-04  1.775195E-04 -2.411994E-03
       316  3.839695E-04  1.689959E-04 -1.618634E-03
       317  1.961879E-04  2.333715E-04 -4.004971E-03
       318  2.074231E-04  2.221362E-04 -3.415080E-03
       319  2.039914E-05  1.364185E-04 -5.019267E-03
       320  2.862982E-05  1.330092E-04 -4.706961E-03
       321  0.000000E+00  0.000000E+00  0.000000E+00
       322  0.000000E+00  0.000000E+00  0.000000E+00
       323  0.000000E+00  0.000000E+00  0.000000E+00
       324  0.000000E+00  0.000000E+00  0.000000E+00
       325  0.000000E+00  0.000000E+00  0.000000E+00
       326  0.000000E+00  0.000000E+00  0.000000E+00
       327  0.000000E+00  0.000000E+00  0.000000E+00
       328  0.000000E+00  0.000000E+00  0.000000E+00
       329  0.000000E+00  0.000000E+00  0.000000E+00
       330  0.000000E+00  0.000000E+00  0.000000E+00
       331  0.000000E+00  0.000000E+00  0.000000E+00
       332  0.000000E+00  0.000000E+00  0.000000E+00
       333  0.000000E+00  0.000000E+00  0.000000E+00
       334  0.000000E+00  0.000000E+00  0.000000E+00
       335  0.000000E+00  0.000000E+00  0.000000E+00
       336  0.000000E+00  0.000000E+00  0.000000E+00
       337  0.000000E+00  0.000000E+00  0.000000E+00
       338  0.000000E+00  0.000000E+00  0.000000E+00
       339  0.000000E+00  0.000000E+00  0.000000E+00
       340  0.000000E+00  0.000000E+00  0.000000E+00
       341  0.000000E+00  0.000000E+00  0.000000E+00
       342  0.000000E+00  0.000000E+00  0.000000E+00
       343  0.000000E+00  0.000000E+00  0.000000E+00
       344  0.000000E+00  0.000000E+00  0.000000E+00
       345  0.000000E+00  0.000000E+00  0.000000E+00
       346  0.000000E+00  0.000000E+00  0.000000E+00
       347  0.000000E+00  0.000000E+00  0.000000E+00
       348  0.000000E+00  0.000000E+00  0.000000E+00
       349  0.000000E+00  0.000000E+00  0.000000E+00
       350  0.000000E+00  0.000000E+00  0.000000E+00
       351  0.000000E+00  0.000000E+00  0.000000E+00
       352  0.000000E+00  0.000000E+00  0.000000E+00
       353  0.000000E+00  0.000000E+00  0.000000E+00
       354  0.000000E+00  0.000000E+00  0.000000E+00
       355  0.000000E+00  0.000000E+00  0.000000E+00
       356  0.000000E+00  0.000000E+00  0.000000E+00
       357  0.000000E+00  0.000000E+00  0.000000E+00
       358  0.000000E+00  0.000000E+00  0.000000E+00
       359  0.000000E+00  0.000000E+00  0.000000E+00
       360 -1.101246E-04 -4.824511E-07  4.766405E-03
       361 -7.196721E-05  1.156447E-04  4.305475E-03
       362  0.000000E+00  0.000000E+00  0.000000E+00
       363  7.749929E-05 -1.626102E-04  3.056869E-03
       364  1.034450E-04 -1.885525E-04  3.450044E-03
       365  7.084723E-05 -1.692622E-04  3.626832E-03
       366 -4.816460E-05 -1.355920E-04  4.188329E-03
       367 -4.558948E-05 -1.418010E-04  4.674159E-03
       368  0.000000E+00  0.000000E+00  0.000000E+00
       369  0.000000E+00  0.000000E+00  0.000000E+00
       370  0.000000E+00  0.000000E+00  0.000000E+00
       371 -4.975677E-05 -1.362514E-04  4.520074E-03
       372 -1.076452E-04 -1.013906E-05  5.254665E-03
       373  2.024886E-04 -1.843659E-06 -3.852177E-04
       374  1.658634E-04 -1.148190E-04 -1.426663E-03
       375  2.329721E-04 -1.426153E-04 -1.691934E-03
       376  0.000000E+00  0.000000E+00  0.000000E+00
       377  1.875158E-04  1.190199E-04  1.571808E-03
       378  1.587359E-04 -1.320264E-04 -2.229395E-03
       379 -8.692487E-05 -1.052602E-05 -4.874491E-03
       380 -3.129770E-05  1.033938E-04 -5.335378E-03
       381 -4.741734E-05 -1.357919E-04 -4.935921E-03
       382  5.865969E-05 -1.759334E-04 -3.708298E-03
       383  0.000000E+00  0.000000E+00  0.000000E+00
       384  6.706604E-05  1.379247E-04 -3.790667E-03
       385  1.108861E-04  1.817406E-04 -4.219250E-03
       386  7.830187E-05  1.266890E-04 -3.200774E-03
       387  2.345203E-04  1.276252E-04 -2.499693E-03
       388  2.048081E-04  1.053331E-04 -1.530924E-03
       389  2.497267E-04 -3.213661E-07 -4.496131E-04
       390  3.007561E-04 -3.216895E-07 -4.937161E-04
       391  0.000000E+00  0.000000E+00  0.000000E+00
       392  2.312128E-04 -1.390849E-04  1.647407E-03
       393 -1.101239E-04 -2.895354E-06  4.889711E-03
       394 -1.101251E-04  1.930832E-06  4.643093E-03
       395 -7.251305E-05  1.143254E-04  4.435206E-03
       396 -7.142118E-05  1.169636E-04  4.175740E-03
       397  7.101305E-05 -1.561244E-04  2.958560E-03
       398  8.398579E-05 -1.690957E-04  3.155172E-03
       399  9.695877E-05 -1.820669E-04  3.351759E-03
       400  1.099311E-04 -1.950380E-04  3.548324E-03
       401  6.436105E-05 -1.627764E-04  3.528528E-03
       402 -4.880798E-05 -1.340395E-04  4.066856E-03
       403 -4.752105E-05 -1.371441E-04  4.309796E-03
       404 -4.623321E-05 -1.402487E-04  4.552712E-03
       405 -4.494562E-05 -1.433536E-04  4.795599E-03
       406 -5.040041E-05 -1.346990E-04  4.398602E-03
       407 -1.076461E-04 -7.723811E-06  5.131385E-03
       408 -1.076447E-04 -1.255378E-05  5.377938E-03
       409  2.253682E-04 -1.843420E-06 -3.924116E-04
       410  1.796087E-04 -1.843772E-06 -3.780239E-04
       411  1.490859E-04 -1.078697E-04 -1.360339E-03
       412  1.826408E-04 -1.217683E-04 -1.492985E-03
       413  2.497487E-04 -1.495642E-04 -1.758242E-03
       414  1.980025E-04  1.233632E-04  1.636198E-03
       415  1.770291E-04  1.146765E-04  1.507415E-03
       416  1.419583E-04 -1.250770E-04 -2.163071E-03
       417 -8.692429E-05 -1.073661E-05 -5.041876E-03
       418 -8.692533E-05 -1.031510E-05 -4.707101E-03
       419 -3.462221E-05  9.536899E-05 -5.177326E-03
       420 -2.797301E-05  1.114190E-04 -5.493422E-03
       421 -4.732173E-05 -1.360255E-04 -4.786124E-03
       422 -4.751335E-05 -1.355588E-04 -5.085712E-03
       423  6.420031E-05 -1.814735E-04 -3.834342E-03
       424  5.311927E-05 -1.703936E-04 -3.582250E-03
       425  5.611094E-05  1.269701E-04 -3.683509E-03
       426  7.802146E-05  1.488793E-04 -3.897822E-03
       427  9.993151E-05  1.707867E-04 -4.112114E-03
       428  1.218406E-04  1.926948E-04 -4.326380E-03
       429  6.734666E-05  1.157344E-04 -3.093614E-03
       430  2.262098E-04  1.241831E-04 -2.455845E-03
       431  2.428309E-04  1.310672E-04 -2.543537E-03
       432  2.131190E-04  1.087754E-04 -1.574780E-03
       433  1.964971E-04  1.018907E-04 -1.487066E-03
       434  2.369689E-04 -3.213705E-07 -4.385873E-04
       435  2.624842E-04 -3.214916E-07 -4.606393E-04
       436  2.879988E-04 -3.216359E-07 -4.826908E-04
       437  3.135132E-04 -3.217579E-07 -5.047411E-04
       438  2.146840E-04 -1.322389E-04  1.595345E-03
       439  2.477417E-04 -1.459311E-04  1.699466E-03
       440  0.000000E+00  0.000000E+00  0.000000E+00
       441  0.000000E+00  0.000000E+00  0.000000E+00
       442  0.000000E+00  0.000000E+00  0.000000E+00
       443  0.000000E+00  0.000000E+00  0.000000E+00
       444  0.000000E+00  0.000000E+00  0.000000E+00
       445  0.000000E+00  0.000000E+00  0.000000E+00
       446  0.000000E+00  0.000000E+00  0.000000E+00
       447  0.000000E+00  0.000000E+00  0.000000E+00
       448  0.000000E+00  0.000000E+00  0.000000E+00
       449  0.000000E+00  0.000000E+00  0.000000E+00
       450  0.000000E+00  0.000000E+00  0.000000E+00
       451  0.000000E+00  0.000000E+00  0.000000E+00
       452  0.000000E+00  0.000000E+00  0.000000E+00
       453  0.000000E+00  0.000000E+00  0.000000E+00
       454  0.000000E+00  0.000000E+00  0.000000E+00
       455  0.000000E+00  0.000000E+00  0.000000E+00
       456  0.000000E+00  0.000000E+00  0.000000E+00
       457  0.000000E+00  0.000000E+00  0.000000E+00
       458  0.000000E+00  0.000000E+00  0.000000E+00
       459  0.000000E+00  0.000000E+00  0.000000E+00
       460  0.000000E+00  0.000000E+00  0.000000E+00
       461  0.000000E+00  0.000000E+00  0.000000E+00
       462  0.000000E+00  0.000000E+00  0.000000E+00
       463  0.000000E+00  0.000000E+00  0.000000E+00
       464  0.000000E+00  0.000000E+00  0.000000E+00
       465  0.000000E+00  0.000000E+00  0.000000E+00
       466  0.000000E+00  0.000000E+00  0.000000E+00
       467  0.000000E+00  0.000000E+00  0.000000E+00
       468  0.000000E+00  0.000000E+00  0.000000E+00
       469  0.000000E+00  0.000000E+00  0.000000E+00
       470  0.000000E+00  0.000000E+00  0.000000E+00
       471  0.000000E+00  0.000000E+00  0.000000E+00
       472  0.000000E+00  0.000000E+00  0.000000E+00
       473  0.000000E+00  0.000000E+00  0.000000E+00
       474  0.000000E+00  0.000000E+00  0.000000E+00
       475  0.000000E+00  0.000000E+00  0.000000E+00
       476  0.000000E+00  0.000000E+00  0.000000E+00
       477  0.000000E+00  0.000000E+00  0.000000E+00
       478  0.000000E+00  0.000000E+00  0.000000E+00
       479  0.000000E+00  0.000000E+00  0.000000E+00
       480  0.000000E+00  0.000000E+00  0.000000E+00
       481  0.000000E+00  0.000000E+00  0.000000E+00
       482  0.000000E+00  0.000000E+00  0.000000E+00
       483  0.000000E+00  0.000000E+00  0.000000E+00
       484  0.000000E+00  0.000000E+00  0.000000E+00
       485  0.000000E+00  0.000000E+00  0.000000E+00
       486  0.000000E+00  0.000000E+00  0.000000E+00
       487  0.000000E+00  0.000000E+00  0.000000E+00
       488  0.000000E+00  0.000000E+00  0.000000E+00
       489  0.000000E+00  0.000000E+00  0.000000E+00
       490  0.000000E+00  0.000000E+00  0.000000E+00
       491  0.000000E+00  0.000000E+00  0.000000E+00
       492  0.000000E+00  0.000000E+00  0.000000E+00
       493  0.000000E+00  0.000000E+00  0.000000E+00
       494  0.000000E+00  0.000000E+00  0.000000E+00
       495  0.000000E+00  0.000000E+00  0.000000E+00
       496  0.000000E+00  0.000000E+00  0.000000E+00
       497 -7.279725E-05  1.098078E-04  5.119663E-03
       498 -7.061437E-05  1.150843E-04  4.600784E-03
       499 -1.101222E-04 -1.013897E-05  5.259580E-03
       500  7.985523E-05  1.965798E-04  4.237400E-03
       501  3.286754E-05  1.495949E-04  3.800761E-03
       502 -7.414917E-05  1.103679E-04  4.824354E-03
       503  4.491496E-05  1.375474E-04  3.219381E-03
       504  2.250071E-04  1.471480E-04  2.638496E-03
       505  1.830611E-04  1.297747E-04  2.380964E-03
       506  9.190291E-05  1.845322E-04  3.656025E-03
       507  0.000000E+00  0.000000E+00  0.000000E+00
       508  1.580764E-04 -1.286527E-04  2.224690E-03
       509  2.241908E-04 -1.560372E-04  2.432954E-03
       510  0.000000E+00  0.000000E+00  0.000000E+00
       511  0.000000E+00  0.000000E+00  0.000000E+00
       512  9.679292E-05 -1.952045E-04  4.020001E-03
       513  0.000000E+00  0.000000E+00  0.000000E+00
       514  0.000000E+00  0.000000E+00  0.000000E+00
       515  0.000000E+00  0.000000E+00  0.000000E+00
       516  0.000000E+00  0.000000E+00  0.000000E+00
       517  0.000000E+00  0.000000E+00  0.000000E+00
       518  0.000000E+00  0.000000E+00  0.000000E+00
       519  0.000000E+00  0.000000E+00  0.000000E+00
       520 -4.718195E-05 -1.424606E-04  5.005903E-03
       521 -1.076496E-04 -4.824723E-07  4.761491E-03
       522  2.940047E-04 -1.843023E-06 -4.139939E-04
       523  2.940046E-04  2.162183E-05  4.915520E-04
       524  2.024887E-04  2.162245E-05  5.203331E-04
       525  0.000000E+00  0.000000E+00  0.000000E+00
       526  2.294620E-04  1.363931E-04  1.829346E-03
       527  8.650628E-05 -1.924109E-04 -3.612641E-03
       528  6.434180E-05 -1.702514E-04 -3.108507E-03
       529  2.258447E-04 -1.598220E-04 -2.494664E-03
       530 -8.692195E-05 -1.137127E-05 -5.543984E-03
       531 -4.459758E-05  7.129402E-05 -4.703128E-03
       532 -4.703350E-05 -1.367249E-04 -4.336685E-03
       533  0.000000E+00  0.000000E+00  0.000000E+00
       534  0.000000E+00  0.000000E+00  0.000000E+00
       535  0.000000E+00  0.000000E+00  0.000000E+00
       536  0.000000E+00  0.000000E+00  0.000000E+00
       537  8.082362E-05 -1.980935E-04 -4.212425E-03
       538  0.000000E+00  0.000000E+00  0.000000E+00
       539  0.000000E+00  0.000000E+00  0.000000E+00
       540  0.000000E+00  0.000000E+00  0.000000E+00
       541 -3.636562E-05  6.788428E-05 -4.390822E-03
       542 -2.306662E-05  9.998445E-05 -5.023072E-03
       543  0.000000E+00  0.000000E+00  0.000000E+00
       544 -8.670564E-05 -1.137128E-05 -5.576240E-03
       545 -8.670872E-05 -1.052608E-05 -4.906747E-03
       546 -4.679550E-05 -1.366262E-04 -4.672977E-03
       547 -4.717851E-05 -1.356930E-04 -5.272214E-03
       548  0.000000E+00  0.000000E+00  0.000000E+00
       549  1.221213E-04  1.705054E-04 -3.629361E-03
       550  2.012775E-04  1.138568E-04 -2.324285E-03
       551  2.380509E-04  1.191018E-04 -1.706333E-03
       552  0.000000E+00  0.000000E+00  0.000000E+00
       553  0.000000E+00  0.000000E+00  0.000000E+00
       554  0.000000E+00  0.000000E+00  0.000000E+00
       555  2.497266E-04 -1.340586E-05  4.178706E-04
       556  3.007561E-04 -1.340581E-05  3.737633E-04
       557  1.650981E-04 -1.117006E-04  1.439142E-03
       558  0.000000E+00  0.000000E+00  0.000000E+00
       559  0.000000E+00  0.000000E+00  0.000000E+00
       560 -4.973153E-05 -4.382491E-06 -5.543984E-03
       561 -4.951157E-05 -3.537317E-06 -4.906747E-03
       562 -4.951502E-05 -4.382481E-06 -5.576240E-03
       563 -4.972769E-05 -3.537343E-06 -4.874491E-03
       564  1.160975E-05 -1.913011E-04 -4.336685E-03